LAMMPS (16 Mar 2018)
###############################################################################
# MD simulation for NN water
###############################################################################

###############################################################################
# VARIABLES
###############################################################################
clear
# Configuration files
variable cfgFile         string "lmp/restart.data"
# Timesteps
variable numSteps        equal  500000
variable dt              equal  0.5
# NN
variable nnpCutoff       equal  6.36
variable nnpDir          string "nnp"
# Masses
variable mass_H          equal  1.00794
variable mass_O          equal  15.9994

###############################################################################
# GENERAL SETUP
###############################################################################
units real   # NOT METAL!!!
boundary p p p
atom_style full
read_restart ${cfgFile}
read_restart lmp/restart.data
WARNING: Restart file used different # of processors (../read_restart.cpp:723)
  orthogonal box = (-6.63342 -6.62892 -6.60542) to (6.36142 6.36592 6.38942)
  2 by 2 by 5 MPI processor grid
  222 atoms
  0 = max # of 1-2 neighbors
  0 = max # of 1-3 neighbors
  0 = max # of 1-4 neighbors
  1 = max # of special neighbors
#replicate 2 2 2
mass 1 ${mass_H}
mass 1 1.00794
mass 2 ${mass_O}
mass 2 15.9994
timestep ${dt}
timestep 0.5
thermo 50

###############################################################################
# NN
###############################################################################
pair_style nnp dir ${nnpDir} showew no showewsum 0 resetew yes maxew 5000 cflength 1.8897261328 cfenergy 0.0015936 # kcal/mol -> Hartree !!!
pair_style nnp dir nnp showew no showewsum 0 resetew yes maxew 5000 cflength 1.8897261328 cfenergy 0.0015936 
pair_coeff * * ${nnpCutoff}
pair_coeff * * 6.36

###############################################################################
# SETTING
###############################################################################

dump           1 all atom 1000 results/dump-nnp.lammpstrj
dump           xyz all xyz 1000 results/dump.xyz
dump_modify    xyz sort id element H O

variable  dens equal (mass(all)/vol*1.66054) # gr/cm3

###############################################################################
# SIMULATION
###############################################################################

variable T      equal 300
variable P      equal 1.0
velocity   	    all create 300 98445 dist gaussian mom yes rot yes

############################ stress-tensor

variable    vp equal lx*ly*lz
compute     Tc all temp

#compute     peratom all stress/atom Tc
#compute     sxx all   reduce sum c_peratom[1]
#compute     syy all   reduce sum c_peratom[2]
#compute     szz all   reduce sum c_peratom[3]
#compute     sxy all   reduce sum c_peratom[4]
#compute     sxz all   reduce sum c_peratom[5]
#compute     syz all   reduce sum c_peratom[6]

variable    pxy equal   pxy #-c_sxy/(v_vp)
variable    pxz equal   pxz #-c_sxz/(v_vp)
variable    pyz equal   pyz #-c_syz/(v_vp)

############################

thermo_style    custom step temp etotal press lx ly lz v_dens

fix        	rlx all nvt temp $T $T 10 #iso $P $P 1000
fix        	rlx all nvt temp 300 $T 10 
fix        	rlx all nvt temp 300 300 10 
Resetting global fix info from restart file:
  fix style: nvt, fix ID: rlx
run 			  50000

*******************************************************************************

   NNP LIBRARY v2.0.0
   ------------------

Git branch  : 
Git revision:  ()

Number of OpenMP threads: 1
*******************************************************************************

*** SETUP: SETTINGS FILE ******************************************************

Settings file name: nnp/input.nn
Read 187 lines.
Found 106 lines with keywords.
*******************************************************************************

*** SETUP: NORMALIZATION ******************************************************

Data set normalization is not used.
*******************************************************************************

*** SETUP: ELEMENT MAP ********************************************************

Number of element strings found: 2
Element  0:  H (  1)
Element  1:  O (  8)
*******************************************************************************

*** SETUP: ELEMENTS ***********************************************************

Number of elements is consistent: 2
Atomic energy offsets per element:
Element  0:   0.00000000E+00
Element  1:   0.00000000E+00
Energy offsets are automatically subtracted from reference energies.
*******************************************************************************

*** SETUP: CUTOFF FUNCTIONS ***************************************************

Parameter alpha for inner cutoff: 0.000000
Inner cutoff = Symmetry function cutoff * alpha
Equal cutoff function type for all symmetry functions:
CutoffFunction::CT_TANHU (2)
f(r) = tanh^3(1 - r/rc)
*******************************************************************************

*** SETUP: SYMMETRY FUNCTIONS *************************************************

Abbreviations:
--------------
ind .... Symmetry function index.
ec ..... Central atom element.
ty ..... Symmetry function type.
e1 ..... Neighbor 1 element.
e2 ..... Neighbor 2 element.
eta .... Gaussian width eta.
rs ..... Shift distance of Gaussian.
la ..... Angle prefactor lambda.
zeta ... Angle term exponent zeta.
rc ..... Cutoff radius.
ct ..... Cutoff type.
ca ..... Cutoff alpha.
ln ..... Line number in settings file.

Short range atomic symmetry functions element  H :
-------------------------------------------------------------------------------
 ind ec ty e1 e2       eta        rs la zeta        rc ct   ca    ln
-------------------------------------------------------------------------------
   1  H  2  H    1.000E-03 0.000E+00         1.200E+01  2 0.00   118
   2  H  2  O    1.000E-03 0.000E+00         1.200E+01  2 0.00   128
   3  H  2  H    1.000E-02 0.000E+00         1.200E+01  2 0.00   119
   4  H  2  O    1.000E-02 0.000E+00         1.200E+01  2 0.00   129
   5  H  2  H    3.000E-02 0.000E+00         1.200E+01  2 0.00   120
   6  H  2  O    3.000E-02 0.000E+00         1.200E+01  2 0.00   130
   7  H  2  H    6.000E-02 0.000E+00         1.200E+01  2 0.00   121
   8  H  2  O    6.000E-02 0.000E+00         1.200E+01  2 0.00   131
   9  H  2  O    1.500E-01 9.000E-01         1.200E+01  2 0.00   132
  10  H  2  H    1.500E-01 1.900E+00         1.200E+01  2 0.00   122
  11  H  2  O    3.000E-01 9.000E-01         1.200E+01  2 0.00   133
  12  H  2  H    3.000E-01 1.900E+00         1.200E+01  2 0.00   123
  13  H  2  O    6.000E-01 9.000E-01         1.200E+01  2 0.00   134
  14  H  2  H    6.000E-01 1.900E+00         1.200E+01  2 0.00   124
  15  H  2  O    1.500E+00 9.000E-01         1.200E+01  2 0.00   135
  16  H  2  H    1.500E+00 1.900E+00         1.200E+01  2 0.00   125
  17  H  3  O  O 1.000E-03 0.000E+00 -1  4.0 1.200E+01  2 0.00   182
  18  H  3  O  O 1.000E-03 0.000E+00  1  4.0 1.200E+01  2 0.00   181
  19  H  3  H  O 1.000E-02 0.000E+00 -1  4.0 1.200E+01  2 0.00   172
  20  H  3  H  O 1.000E-02 0.000E+00  1  4.0 1.200E+01  2 0.00   170
  21  H  3  H  O 3.000E-02 0.000E+00 -1  1.0 1.200E+01  2 0.00   167
  22  H  3  O  O 3.000E-02 0.000E+00 -1  1.0 1.200E+01  2 0.00   180
  23  H  3  H  O 3.000E-02 0.000E+00  1  1.0 1.200E+01  2 0.00   165
  24  H  3  O  O 3.000E-02 0.000E+00  1  1.0 1.200E+01  2 0.00   179
  25  H  3  H  O 7.000E-02 0.000E+00 -1  1.0 1.200E+01  2 0.00   162
  26  H  3  H  O 7.000E-02 0.000E+00  1  1.0 1.200E+01  2 0.00   160
  27  H  3  H  O 2.000E-01 0.000E+00  1  1.0 1.200E+01  2 0.00   157
-------------------------------------------------------------------------------
Short range atomic symmetry functions element  O :
-------------------------------------------------------------------------------
 ind ec ty e1 e2       eta        rs la zeta        rc ct   ca    ln
-------------------------------------------------------------------------------
   1  O  2  H    1.000E-03 0.000E+00         1.200E+01  2 0.00   137
   2  O  2  O    1.000E-03 0.000E+00         1.200E+01  2 0.00   147
   3  O  2  H    1.000E-02 0.000E+00         1.200E+01  2 0.00   138
   4  O  2  O    1.000E-02 0.000E+00         1.200E+01  2 0.00   148
   5  O  2  H    3.000E-02 0.000E+00         1.200E+01  2 0.00   139
   6  O  2  O    3.000E-02 0.000E+00         1.200E+01  2 0.00   149
   7  O  2  H    6.000E-02 0.000E+00         1.200E+01  2 0.00   140
   8  O  2  O    6.000E-02 0.000E+00         1.200E+01  2 0.00   150
   9  O  2  H    1.500E-01 9.000E-01         1.200E+01  2 0.00   141
  10  O  2  O    1.500E-01 4.000E+00         1.200E+01  2 0.00   151
  11  O  2  H    3.000E-01 9.000E-01         1.200E+01  2 0.00   142
  12  O  2  O    3.000E-01 4.000E+00         1.200E+01  2 0.00   152
  13  O  2  H    6.000E-01 9.000E-01         1.200E+01  2 0.00   143
  14  O  2  O    6.000E-01 4.000E+00         1.200E+01  2 0.00   153
  15  O  2  H    1.500E+00 9.000E-01         1.200E+01  2 0.00   144
  16  O  2  O    1.500E+00 4.000E+00         1.200E+01  2 0.00   154
  17  O  3  H  O 1.000E-03 0.000E+00 -1  4.0 1.200E+01  2 0.00   177
  18  O  3  O  O 1.000E-03 0.000E+00 -1  4.0 1.200E+01  2 0.00   187
  19  O  3  H  O 1.000E-03 0.000E+00  1  4.0 1.200E+01  2 0.00   176
  20  O  3  O  O 1.000E-03 0.000E+00  1  4.0 1.200E+01  2 0.00   186
  21  O  3  H  H 1.000E-02 0.000E+00 -1  4.0 1.200E+01  2 0.00   171
  22  O  3  H  H 1.000E-02 0.000E+00  1  4.0 1.200E+01  2 0.00   169
  23  O  3  H  H 3.000E-02 0.000E+00 -1  1.0 1.200E+01  2 0.00   166
  24  O  3  H  O 3.000E-02 0.000E+00 -1  1.0 1.200E+01  2 0.00   175
  25  O  3  O  O 3.000E-02 0.000E+00 -1  1.0 1.200E+01  2 0.00   185
  26  O  3  H  H 3.000E-02 0.000E+00  1  1.0 1.200E+01  2 0.00   164
  27  O  3  H  O 3.000E-02 0.000E+00  1  1.0 1.200E+01  2 0.00   174
  28  O  3  O  O 3.000E-02 0.000E+00  1  1.0 1.200E+01  2 0.00   184
  29  O  3  H  H 7.000E-02 0.000E+00 -1  1.0 1.200E+01  2 0.00   161
  30  O  3  H  H 7.000E-02 0.000E+00  1  1.0 1.200E+01  2 0.00   159
-------------------------------------------------------------------------------
Minimum cutoff radius for element  H: 12.000000
Minimum cutoff radius for element  O: 12.000000
Maximum cutoff radius (global)      : 12.000000
*******************************************************************************

*** SETUP: SYMMETRY FUNCTION GROUPS *******************************************

Abbreviations:
--------------
ind .... Symmetry function group index.
ec ..... Central atom element.
ty ..... Symmetry function type.
e1 ..... Neighbor 1 element.
e2 ..... Neighbor 2 element.
eta .... Gaussian width eta.
rs ..... Shift distance of Gaussian.
la ..... Angle prefactor lambda.
zeta ... Angle term exponent zeta.
rc ..... Cutoff radius.
ct ..... Cutoff type.
ca ..... Cutoff alpha.
ln ..... Line number in settings file.
mi ..... Member index.
sfi .... Symmetry function index.
e ...... Recalculate exponential term.

Short range atomic symmetry function groups element  H :
-------------------------------------------------------------------------------
 ind ec ty e1 e2       eta        rs la zeta        rc ct   ca    ln   mi  sfi e
-------------------------------------------------------------------------------
   1  H  2  H            *         *         1.200E+01  2 0.00     *    *    *  
   -  -  -  -    1.000E-03 0.000E+00                 -  -    -   117    1    1  
   -  -  -  -    1.000E-02 0.000E+00                 -  -    -   118    2    3  
   -  -  -  -    3.000E-02 0.000E+00                 -  -    -   119    3    5  
   -  -  -  -    6.000E-02 0.000E+00                 -  -    -   120    4    7  
   -  -  -  -    1.500E-01 1.900E+00                 -  -    -   121    5   10  
   -  -  -  -    3.000E-01 1.900E+00                 -  -    -   122    6   12  
   -  -  -  -    6.000E-01 1.900E+00                 -  -    -   123    7   14  
   -  -  -  -    1.500E+00 1.900E+00                 -  -    -   124    8   16  
   2  H  2  O            *         *         1.200E+01  2 0.00     *    *    *  
   -  -  -  -    1.000E-03 0.000E+00                 -  -    -   127    1    2  
   -  -  -  -    1.000E-02 0.000E+00                 -  -    -   128    2    4  
   -  -  -  -    3.000E-02 0.000E+00                 -  -    -   129    3    6  
   -  -  -  -    6.000E-02 0.000E+00                 -  -    -   130    4    8  
   -  -  -  -    1.500E-01 9.000E-01                 -  -    -   131    5    9  
   -  -  -  -    3.000E-01 9.000E-01                 -  -    -   132    6   11  
   -  -  -  -    6.000E-01 9.000E-01                 -  -    -   133    7   13  
   -  -  -  -    1.500E+00 9.000E-01                 -  -    -   134    8   15  
   3  H  3  H  O         *         *  *    * 1.200E+01  2 0.00     *    *    * *
   -  -  -  -  - 1.000E-02 0.000E+00 -1  4.0         -  -    -   171    1   19 1
   -  -  -  -  - 1.000E-02 0.000E+00  1  4.0         -  -    -   169    2   20 0
   -  -  -  -  - 3.000E-02 0.000E+00 -1  1.0         -  -    -   166    3   21 1
   -  -  -  -  - 3.000E-02 0.000E+00  1  1.0         -  -    -   164    4   23 0
   -  -  -  -  - 7.000E-02 0.000E+00 -1  1.0         -  -    -   161    5   25 1
   -  -  -  -  - 7.000E-02 0.000E+00  1  1.0         -  -    -   159    6   26 0
   -  -  -  -  - 2.000E-01 0.000E+00  1  1.0         -  -    -   156    7   27 1
   4  H  3  O  O         *         *  *    * 1.200E+01  2 0.00     *    *    * *
   -  -  -  -  - 1.000E-03 0.000E+00 -1  4.0         -  -    -   181    1   17 1
   -  -  -  -  - 1.000E-03 0.000E+00  1  4.0         -  -    -   180    2   18 0
   -  -  -  -  - 3.000E-02 0.000E+00 -1  1.0         -  -    -   179    3   22 1
   -  -  -  -  - 3.000E-02 0.000E+00  1  1.0         -  -    -   178    4   24 0
-------------------------------------------------------------------------------
Short range atomic symmetry function groups element  O :
-------------------------------------------------------------------------------
 ind ec ty e1 e2       eta        rs la zeta        rc ct   ca    ln   mi  sfi e
-------------------------------------------------------------------------------
   1  O  2  H            *         *         1.200E+01  2 0.00     *    *    *  
   -  -  -  -    1.000E-03 0.000E+00                 -  -    -   136    1    1  
   -  -  -  -    1.000E-02 0.000E+00                 -  -    -   137    2    3  
   -  -  -  -    3.000E-02 0.000E+00                 -  -    -   138    3    5  
   -  -  -  -    6.000E-02 0.000E+00                 -  -    -   139    4    7  
   -  -  -  -    1.500E-01 9.000E-01                 -  -    -   140    5    9  
   -  -  -  -    3.000E-01 9.000E-01                 -  -    -   141    6   11  
   -  -  -  -    6.000E-01 9.000E-01                 -  -    -   142    7   13  
   -  -  -  -    1.500E+00 9.000E-01                 -  -    -   143    8   15  
   2  O  2  O            *         *         1.200E+01  2 0.00     *    *    *  
   -  -  -  -    1.000E-03 0.000E+00                 -  -    -   146    1    2  
   -  -  -  -    1.000E-02 0.000E+00                 -  -    -   147    2    4  
   -  -  -  -    3.000E-02 0.000E+00                 -  -    -   148    3    6  
   -  -  -  -    6.000E-02 0.000E+00                 -  -    -   149    4    8  
   -  -  -  -    1.500E-01 4.000E+00                 -  -    -   150    5   10  
   -  -  -  -    3.000E-01 4.000E+00                 -  -    -   151    6   12  
   -  -  -  -    6.000E-01 4.000E+00                 -  -    -   152    7   14  
   -  -  -  -    1.500E+00 4.000E+00                 -  -    -   153    8   16  
   3  O  3  H  H         *         *  *    * 1.200E+01  2 0.00     *    *    * *
   -  -  -  -  - 1.000E-02 0.000E+00 -1  4.0         -  -    -   170    1   21 1
   -  -  -  -  - 1.000E-02 0.000E+00  1  4.0         -  -    -   168    2   22 0
   -  -  -  -  - 3.000E-02 0.000E+00 -1  1.0         -  -    -   165    3   23 1
   -  -  -  -  - 3.000E-02 0.000E+00  1  1.0         -  -    -   163    4   26 0
   -  -  -  -  - 7.000E-02 0.000E+00 -1  1.0         -  -    -   160    5   29 1
   -  -  -  -  - 7.000E-02 0.000E+00  1  1.0         -  -    -   158    6   30 0
   4  O  3  H  O         *         *  *    * 1.200E+01  2 0.00     *    *    * *
   -  -  -  -  - 1.000E-03 0.000E+00 -1  4.0         -  -    -   176    1   17 1
   -  -  -  -  - 1.000E-03 0.000E+00  1  4.0         -  -    -   175    2   19 0
   -  -  -  -  - 3.000E-02 0.000E+00 -1  1.0         -  -    -   174    3   24 1
   -  -  -  -  - 3.000E-02 0.000E+00  1  1.0         -  -    -   173    4   27 0
   5  O  3  O  O         *         *  *    * 1.200E+01  2 0.00     *    *    * *
   -  -  -  -  - 1.000E-03 0.000E+00 -1  4.0         -  -    -   186    1   18 1
   -  -  -  -  - 1.000E-03 0.000E+00  1  4.0         -  -    -   185    2   20 0
   -  -  -  -  - 3.000E-02 0.000E+00 -1  1.0         -  -    -   184    3   25 1
   -  -  -  -  - 3.000E-02 0.000E+00  1  1.0         -  -    -   183    4   28 0
-------------------------------------------------------------------------------
*******************************************************************************

*** SETUP: NEURAL NETWORKS ****************************************************

Normalize neurons (all elements): 0
-------------------------------------------------------------------------------
Atomic short range NN for element  H :
Number of weights    :   1325
Number of biases     :     51
Number of connections:   1376
Architecture       27   25   25    1
-------------------------------------------------------------------------------
   1   G   t   t   l
   2   G   t   t
   3   G   t   t
   4   G   t   t
   5   G   t   t
   6   G   t   t
   7   G   t   t
   8   G   t   t
   9   G   t   t
  10   G   t   t
  11   G   t   t
  12   G   t   t
  13   G   t   t
  14   G   t   t
  15   G   t   t
  16   G   t   t
  17   G   t   t
  18   G   t   t
  19   G   t   t
  20   G   t   t
  21   G   t   t
  22   G   t   t
  23   G   t   t
  24   G   t   t
  25   G   t   t
  26   G
  27   G
-------------------------------------------------------------------------------
Atomic short range NN for element  O :
Number of weights    :   1400
Number of biases     :     51
Number of connections:   1451
Architecture       30   25   25    1
-------------------------------------------------------------------------------
   1   G   t   t   l
   2   G   t   t
   3   G   t   t
   4   G   t   t
   5   G   t   t
   6   G   t   t
   7   G   t   t
   8   G   t   t
   9   G   t   t
  10   G   t   t
  11   G   t   t
  12   G   t   t
  13   G   t   t
  14   G   t   t
  15   G   t   t
  16   G   t   t
  17   G   t   t
  18   G   t   t
  19   G   t   t
  20   G   t   t
  21   G   t   t
  22   G   t   t
  23   G   t   t
  24   G   t   t
  25   G   t   t
  26   G
  27   G
  28   G
  29   G
  30   G
-------------------------------------------------------------------------------
*******************************************************************************

*** SETUP: SYMMETRY FUNCTION SCALING ******************************************

Equal scaling type for all symmetry functions:
Scaling type::ST_SCALECENTER (3)
Gs = Smin + (Smax - Smin) * (G - Gmean) / (Gmax - Gmin)
Smin = 0.000000
Smax = 1.000000
Symmetry function scaling statistics from file: nnp/scaling.data
-------------------------------------------------------------------------------

Abbreviations:
--------------
ind ..... Symmetry function index.
min ..... Minimum symmetry function value.
max ..... Maximum symmetry function value.
mean .... Mean symmetry function value.
sigma ... Standard deviation of symmetry function values.
sf ...... Scaling factor for derivatives.
Smin .... Desired minimum scaled symmetry function value.
Smax .... Desired maximum scaled symmetry function value.
t ....... Scaling type.

Scaling data for symmetry functions element  H :
-------------------------------------------------------------------------------
 ind       min       max      mean     sigma        sf  Smin  Smax t
-------------------------------------------------------------------------------
   1  1.57E+00  3.00E+00  2.27E+00  1.77E-01  7.00E-01  0.00  1.00 3
   2  9.80E-01  1.67E+00  1.33E+00  8.18E-02  1.44E+00  0.00  1.00 3
   3  1.06E+00  2.25E+00  1.65E+00  1.45E-01  8.44E-01  0.00  1.00 3
   4  7.15E-01  1.31E+00  1.01E+00  6.65E-02  1.68E+00  0.00  1.00 3
   5  5.10E-01  1.34E+00  9.12E-01  9.78E-02  1.21E+00  0.00  1.00 3
   6  4.31E-01  8.44E-01  6.49E-01  4.49E-02  2.42E+00  0.00  1.00 3
   7  2.40E-01  7.52E-01  4.61E-01  5.88E-02  1.95E+00  0.00  1.00 3
   8  2.92E-01  5.41E-01  4.24E-01  2.91E-02  4.01E+00  0.00  1.00 3
   9  2.78E-01  4.54E-01  3.64E-01  2.54E-02  5.66E+00  0.00  1.00 3
  10  2.76E-01  9.68E-01  5.44E-01  8.01E-02  1.44E+00  0.00  1.00 3
  11  2.16E-01  3.30E-01  2.72E-01  1.40E-02  8.82E+00  0.00  1.00 3
  12  1.62E-01  6.28E-01  3.04E-01  4.76E-02  2.14E+00  0.00  1.00 3
  13  1.35E-01  2.51E-01  1.93E-01  1.33E-02  8.60E+00  0.00  1.00 3
  14  7.21E-02  4.01E-01  1.61E-01  2.54E-02  3.04E+00  0.00  1.00 3
  15  2.59E-02  1.58E-01  8.45E-02  1.48E-02  7.57E+00  0.00  1.00 3
  16  8.34E-03  1.72E-01  5.40E-02  1.83E-02  6.09E+00  0.00  1.00 3
  17  1.49E-03  3.16E-02  1.71E-02  4.22E-03  3.32E+01  0.00  1.00 3
  18  9.20E-03  3.96E-02  2.05E-02  3.31E-03  3.29E+01  0.00  1.00 3
  19  1.42E-03  3.76E-02  1.67E-02  4.60E-03  2.76E+01  0.00  1.00 3
  20  7.46E-02  2.22E-01  1.39E-01  1.69E-02  6.80E+00  0.00  1.00 3
  21  5.08E-03  4.34E-02  1.76E-02  4.32E-03  2.61E+01  0.00  1.00 3
  22  3.80E-04  1.41E-02  5.96E-03  1.92E-03  7.28E+01  0.00  1.00 3
  23  4.32E-02  1.30E-01  7.89E-02  1.04E-02  1.15E+01  0.00  1.00 3
  24  8.85E-04  9.51E-03  3.89E-03  1.04E-03  1.16E+02  0.00  1.00 3
  25  1.32E-03  1.06E-02  3.69E-03  8.06E-04  1.07E+02  0.00  1.00 3
  26  1.49E-02  3.88E-02  2.45E-02  2.54E-03  4.18E+01  0.00  1.00 3
  27  9.68E-04  4.86E-03  2.34E-03  4.27E-04  2.57E+02  0.00  1.00 3
-------------------------------------------------------------------------------
Scaling data for symmetry functions element  O :
-------------------------------------------------------------------------------
 ind       min       max      mean     sigma        sf  Smin  Smax t
-------------------------------------------------------------------------------
   1  1.97E+00  3.40E+00  2.65E+00  1.75E-01  6.98E-01  0.00  1.00 3
   2  6.72E-01  1.31E+00  9.62E-01  7.97E-02  1.57E+00  0.00  1.00 3
   3  1.47E+00  2.66E+00  2.03E+00  1.41E-01  8.43E-01  0.00  1.00 3
   4  4.26E-01  9.39E-01  6.55E-01  6.26E-02  1.95E+00  0.00  1.00 3
   5  8.92E-01  1.71E+00  1.30E+00  9.30E-02  1.22E+00  0.00  1.00 3
   6  1.69E-01  4.79E-01  3.03E-01  3.78E-02  3.23E+00  0.00  1.00 3
   7  5.96E-01  1.11E+00  8.49E-01  5.56E-02  1.95E+00  0.00  1.00 3
   8  4.75E-02  1.89E-01  1.08E-01  1.86E-02  7.05E+00  0.00  1.00 3
   9  5.69E-01  9.12E-01  7.27E-01  4.00E-02  2.91E+00  0.00  1.00 3
  10  2.21E-01  7.91E-01  4.67E-01  7.10E-02  1.75E+00  0.00  1.00 3
  11  4.55E-01  6.24E-01  5.43E-01  2.04E-02  5.92E+00  0.00  1.00 3
  12  1.02E-01  5.82E-01  3.09E-01  6.54E-02  2.08E+00  0.00  1.00 3
  13  2.90E-01  4.69E-01  3.85E-01  2.01E-02  5.59E+00  0.00  1.00 3
  14  2.07E-02  4.30E-01  1.68E-01  5.53E-02  2.44E+00  0.00  1.00 3
  15  8.23E-02  2.64E-01  1.69E-01  2.12E-02  5.51E+00  0.00  1.00 3
  16  2.78E-04  2.15E-01  4.33E-02  2.81E-02  4.67E+00  0.00  1.00 3
  17  3.55E-03  3.02E-02  1.48E-02  3.17E-03  3.76E+01  0.00  1.00 3
  18  9.37E-05  2.09E-03  6.28E-04  2.48E-04  5.01E+02  0.00  1.00 3
  19  9.44E-02  3.19E-01  1.90E-01  2.66E-02  4.46E+00  0.00  1.00 3
  20  4.08E-03  2.09E-02  9.81E-03  2.07E-03  5.94E+01  0.00  1.00 3
  21  8.05E-03  5.33E-02  2.98E-02  5.03E-03  2.21E+01  0.00  1.00 3
  22  2.67E-02  1.37E-01  7.08E-02  1.26E-02  9.06E+00  0.00  1.00 3
  23  2.17E-02  8.25E-02  4.80E-02  6.78E-03  1.64E+01  0.00  1.00 3
  24  1.31E-03  1.48E-02  6.07E-03  1.68E-03  7.42E+01  0.00  1.00 3
  25  3.03E-05  8.58E-04  2.17E-04  9.34E-05  1.21E+03  0.00  1.00 3
  26  1.66E-02  9.57E-02  4.85E-02  8.92E-03  1.27E+01  0.00  1.00 3
  27  1.12E-02  6.56E-02  3.33E-02  7.33E-03  1.84E+01  0.00  1.00 3
  28  1.08E-04  2.35E-03  6.18E-04  2.39E-04  4.47E+02  0.00  1.00 3
  29  1.02E-02  2.51E-02  1.65E-02  1.81E-03  6.67E+01  0.00  1.00 3
  30  4.70E-03  2.22E-02  1.17E-02  1.95E-03  5.72E+01  0.00  1.00 3
-------------------------------------------------------------------------------
*******************************************************************************

*** SETUP: SYMMETRY FUNCTION STATISTICS ***************************************

Equal symmetry function statistics for all elements.
Collect min/max/mean/sigma                        : 0
Collect extrapolation warnings                    : 1
Write extrapolation warnings immediately to stderr: 0
Halt on any extrapolation warning                 : 0
*******************************************************************************

*** SETUP: NEURAL NETWORK WEIGHTS *********************************************

Weight file name format: nnp/weights.%03d.data
Weight file for element  H: nnp/weights.001.data
Weight file for element  O: nnp/weights.008.data
*******************************************************************************

*** SETUP: LAMMPS INTERFACE ***************************************************

Individual extrapolation warnings will not be shown.
Extrapolation warning summary will not be shown.
The simulation will be stopped when 5000 extrapolation warnings are exceeded.
Extrapolation warning counter is reset every time step.
-------------------------------------------------------------------------------
CAUTION: If the LAMMPS unit system differs from the one used
         during NN training, appropriate conversion factors
         must be provided (see keywords cflength and cfenergy).

Length unit conversion factor:   1.8897261327999999E+00
Energy unit conversion factor:   1.5935999999999999E-03

Checking consistency of cutoff radii (in LAMMPS units):
LAMMPS Cutoff (via pair_coeff)  :   6.360E+00
Maximum symmetry function cutoff:   6.350E+00
Cutoff radii are consistent.
-------------------------------------------------------------------------------
CAUTION: Please ensure that this mapping between LAMMPS
         atom types and NNP elements is consistent:

---------------------------
LAMMPS type  |  NNP element
---------------------------
          1 <->  H (  1)
          2 <->  O (  8)
---------------------------

NNP setup for LAMMPS completed.
*******************************************************************************
All restart file global fix info was re-assigned
Neighbor list info ...
  update every 1 steps, delay 10 steps, check yes
  max neighbors/atom: 2000, page size: 100000
  master list distance cutoff = 8.36
  ghost atom cutoff = 8.36
  binsize = 4.18, bins = 4 4 4
  1 neighbor lists, perpetual/occasional/extra = 1 0 0
  (1) pair nnp, perpetual
      attributes: full, newton on
      pair build: full/bin
      stencil: full/bin/3d
      bin: standard
Per MPI rank memory allocation (min/avg/max) = 7.701 | 7.765 | 7.954 Mbytes
Step Temp TotEng Press Lx Ly Lz v_dens 
   10000          300   -18435.742    3.0182616    12.994831    12.994831    12.994831    1.0088118 
   10050    289.30893   -18448.047   -3440.1271    12.994831    12.994831    12.994831    1.0088118 
   10100    317.37104   -18433.299    -113.4875    12.994831    12.994831    12.994831    1.0088118 
   10150    274.76924   -18453.564   -2524.7478    12.994831    12.994831    12.994831    1.0088118 
   10200    323.22157    -18445.26     4730.583    12.994831    12.994831    12.994831    1.0088118 
   10250    293.92483    -18466.03    1815.8268    12.994831    12.994831    12.994831    1.0088118 
   10300    284.30222   -18449.457    -13581.16    12.994831    12.994831    12.994831    1.0088118 
   10350    295.21146   -18450.396    3976.9221    12.994831    12.994831    12.994831    1.0088118 
   10400    311.46472   -18417.004   -637.03656    12.994831    12.994831    12.994831    1.0088118 
   10450     281.2781   -18454.812    -5701.033    12.994831    12.994831    12.994831    1.0088118 
   10500    315.79552   -18422.398    4417.5426    12.994831    12.994831    12.994831    1.0088118 
   10550    281.91005   -18457.365    -355.6601    12.994831    12.994831    12.994831    1.0088118 
   10600    315.92593   -18429.544   -3363.0964    12.994831    12.994831    12.994831    1.0088118 
   10650     280.2368    -18457.55    2968.5869    12.994831    12.994831    12.994831    1.0088118 
   10700    300.71459   -18436.784   -8603.4091    12.994831    12.994831    12.994831    1.0088118 
   10750    303.36812   -18453.134   -369.56248    12.994831    12.994831    12.994831    1.0088118 
   10800    304.00603   -18467.166    636.05568    12.994831    12.994831    12.994831    1.0088118 
   10850     274.1562   -18474.663   -3113.1201    12.994831    12.994831    12.994831    1.0088118 
   10900    291.30843   -18478.856   -1321.8598    12.994831    12.994831    12.994831    1.0088118 
   10950    304.51488   -18443.497   -3248.7439    12.994831    12.994831    12.994831    1.0088118 
   11000    277.85029   -18461.209   -2937.9513    12.994831    12.994831    12.994831    1.0088118 
   11050     310.1471    -18441.42    5718.8106    12.994831    12.994831    12.994831    1.0088118 
   11100    293.24062   -18442.535    -5869.037    12.994831    12.994831    12.994831    1.0088118 
   11150     306.4828   -18427.097    2072.5172    12.994831    12.994831    12.994831    1.0088118 
   11200    292.20502   -18463.259   -2506.5988    12.994831    12.994831    12.994831    1.0088118 
   11250    319.35054   -18444.459    -1163.063    12.994831    12.994831    12.994831    1.0088118 
   11300    303.14917   -18455.765    4829.3494    12.994831    12.994831    12.994831    1.0088118 
   11350    305.84236    -18432.57   -1916.0105    12.994831    12.994831    12.994831    1.0088118 
   11400    299.64616   -18444.145    3489.0927    12.994831    12.994831    12.994831    1.0088118 
   11450    314.15339   -18421.586    3347.5568    12.994831    12.994831    12.994831    1.0088118 
   11500     314.8718    -18425.76    -2997.394    12.994831    12.994831    12.994831    1.0088118 
   11550     315.0613   -18445.372   -5419.6064    12.994831    12.994831    12.994831    1.0088118 
   11600    310.47103   -18403.026    -1441.601    12.994831    12.994831    12.994831    1.0088118 
   11650    299.88256   -18453.968     3355.541    12.994831    12.994831    12.994831    1.0088118 
   11700    301.97881   -18427.993   -2688.5539    12.994831    12.994831    12.994831    1.0088118 
   11750    287.55895   -18454.646   -5123.4917    12.994831    12.994831    12.994831    1.0088118 
   11800    291.03507   -18469.199    5699.0236    12.994831    12.994831    12.994831    1.0088118 
   11850    283.83954   -18479.065    -4096.109    12.994831    12.994831    12.994831    1.0088118 
   11900    297.53568   -18444.526    69.420031    12.994831    12.994831    12.994831    1.0088118 
   11950    284.52261   -18457.511    2163.4157    12.994831    12.994831    12.994831    1.0088118 
   12000    286.13672   -18467.983   -3723.3116    12.994831    12.994831    12.994831    1.0088118 
   12050    285.79875   -18474.026   -3127.6143    12.994831    12.994831    12.994831    1.0088118 
   12100    311.64964    -18450.97    711.27603    12.994831    12.994831    12.994831    1.0088118 
   12150    272.46752   -18485.211    -4823.699    12.994831    12.994831    12.994831    1.0088118 
   12200    293.89359   -18467.107   -2024.9426    12.994831    12.994831    12.994831    1.0088118 
   12250    273.53181   -18486.967    4681.2501    12.994831    12.994831    12.994831    1.0088118 
   12300    293.21811   -18461.523    3430.8097    12.994831    12.994831    12.994831    1.0088118 
   12350    323.48683   -18427.348   -8213.8387    12.994831    12.994831    12.994831    1.0088118 
   12400    298.23294   -18453.688    1451.4276    12.994831    12.994831    12.994831    1.0088118 
   12450    320.27242   -18446.536    2671.1099    12.994831    12.994831    12.994831    1.0088118 
   12500    271.63103   -18475.308   -1752.5993    12.994831    12.994831    12.994831    1.0088118 
   12550     307.6496   -18455.219    1694.2348    12.994831    12.994831    12.994831    1.0088118 
   12600    299.38657    -18451.44   -3256.0791    12.994831    12.994831    12.994831    1.0088118 
   12650      275.603   -18465.431   -2202.4282    12.994831    12.994831    12.994831    1.0088118 
   12700    301.30583    -18429.99   -2400.9919    12.994831    12.994831    12.994831    1.0088118 
   12750    318.57825   -18441.827   -2533.5426    12.994831    12.994831    12.994831    1.0088118 
   12800    301.42823   -18459.538    3412.7267    12.994831    12.994831    12.994831    1.0088118 
   12850    295.27055   -18448.392   -4242.8008    12.994831    12.994831    12.994831    1.0088118 
   12900    279.56624   -18477.248   -2864.2767    12.994831    12.994831    12.994831    1.0088118 
   12950     298.8063   -18435.286     1111.753    12.994831    12.994831    12.994831    1.0088118 
   13000    309.06958   -18441.966   -3387.8455    12.994831    12.994831    12.994831    1.0088118 
   13050    292.04947   -18455.767    458.43433    12.994831    12.994831    12.994831    1.0088118 
   13100    329.81764   -18419.246    -3001.662    12.994831    12.994831    12.994831    1.0088118 
   13150    280.39879   -18469.759   -4076.9735    12.994831    12.994831    12.994831    1.0088118 
   13200    311.06887   -18446.642    4614.8622    12.994831    12.994831    12.994831    1.0088118 
   13250    276.77131   -18457.653    2420.6053    12.994831    12.994831    12.994831    1.0088118 
   13300    313.11425    -18436.53    645.81561    12.994831    12.994831    12.994831    1.0088118 
   13350    308.78986   -18455.366   -3343.7248    12.994831    12.994831    12.994831    1.0088118 
   13400    323.08617   -18436.217    4900.3881    12.994831    12.994831    12.994831    1.0088118 
   13450     284.6395   -18435.227   -3419.7357    12.994831    12.994831    12.994831    1.0088118 
   13500    328.41835   -18411.392    7599.4742    12.994831    12.994831    12.994831    1.0088118 
   13550     303.6232    -18453.58   -451.50356    12.994831    12.994831    12.994831    1.0088118 
   13600    302.92513   -18442.849   -3199.6432    12.994831    12.994831    12.994831    1.0088118 
   13650    327.50155   -18431.356     3665.576    12.994831    12.994831    12.994831    1.0088118 
   13700    298.76655   -18439.605      3578.99    12.994831    12.994831    12.994831    1.0088118 
   13750    325.09659   -18416.325   -1368.1931    12.994831    12.994831    12.994831    1.0088118 
   13800    304.65339   -18450.133   -2598.6993    12.994831    12.994831    12.994831    1.0088118 
   13850     322.4028   -18419.699    1704.8211    12.994831    12.994831    12.994831    1.0088118 
   13900    286.84456   -18458.071   -1867.2545    12.994831    12.994831    12.994831    1.0088118 
   13950    309.52003   -18431.138    217.97806    12.994831    12.994831    12.994831    1.0088118 
   14000    304.39884   -18448.242     3348.249    12.994831    12.994831    12.994831    1.0088118 
   14050    312.17451   -18456.681   -9715.8167    12.994831    12.994831    12.994831    1.0088118 
   14100    329.30994   -18437.557    4840.6676    12.994831    12.994831    12.994831    1.0088118 
   14150     302.1163   -18451.065   -3939.1864    12.994831    12.994831    12.994831    1.0088118 
   14200    293.95851    -18440.42   -8148.7803    12.994831    12.994831    12.994831    1.0088118 
   14250    323.26081    -18410.86    12254.219    12.994831    12.994831    12.994831    1.0088118 
   14300    305.89946    -18434.91   -6579.6406    12.994831    12.994831    12.994831    1.0088118 
   14350    331.29709   -18414.097   -1963.7532    12.994831    12.994831    12.994831    1.0088118 
   14400    298.50684   -18447.338    3994.0216    12.994831    12.994831    12.994831    1.0088118 
   14450    310.11775   -18414.515   -4344.3256    12.994831    12.994831    12.994831    1.0088118 
   14500    290.84994   -18439.348    4351.4097    12.994831    12.994831    12.994831    1.0088118 
   14550    314.55935   -18411.511    -1221.311    12.994831    12.994831    12.994831    1.0088118 
   14600    287.59081     -18448.4    5232.7211    12.994831    12.994831    12.994831    1.0088118 
   14650    293.37477   -18420.688    3598.3065    12.994831    12.994831    12.994831    1.0088118 
   14700    268.08889   -18440.639     2862.801    12.994831    12.994831    12.994831    1.0088118 
   14750    303.92616   -18442.387    -75.87672    12.994831    12.994831    12.994831    1.0088118 
   14800    324.64548   -18419.526    3377.4582    12.994831    12.994831    12.994831    1.0088118 
   14850    277.35888    -18458.63    617.14062    12.994831    12.994831    12.994831    1.0088118 
   14900    314.37233    -18414.42     289.7203    12.994831    12.994831    12.994831    1.0088118 
   14950    304.46915   -18445.043    3162.4124    12.994831    12.994831    12.994831    1.0088118 
   15000    318.63769    -18413.37   -4555.4567    12.994831    12.994831    12.994831    1.0088118 
   15050    296.66426    -18452.48    -973.1067    12.994831    12.994831    12.994831    1.0088118 
   15100    304.93718   -18429.854   -1036.0477    12.994831    12.994831    12.994831    1.0088118 
   15150    270.42431   -18462.756   -2522.4893    12.994831    12.994831    12.994831    1.0088118 
   15200    290.85598   -18435.156    2147.9674    12.994831    12.994831    12.994831    1.0088118 
   15250    295.65246   -18416.815   -3085.7584    12.994831    12.994831    12.994831    1.0088118 
   15300    287.80363   -18445.505   -3262.5145    12.994831    12.994831    12.994831    1.0088118 
   15350    283.14806    -18447.28   -3070.0198    12.994831    12.994831    12.994831    1.0088118 
   15400     305.6519   -18440.686    1691.5936    12.994831    12.994831    12.994831    1.0088118 
   15450    321.15482   -18418.143    -2224.178    12.994831    12.994831    12.994831    1.0088118 
   15500    288.55345   -18414.296   -3157.5283    12.994831    12.994831    12.994831    1.0088118 
   15550    317.32064   -18433.015    7432.1662    12.994831    12.994831    12.994831    1.0088118 
   15600    293.06605   -18452.506   -8448.4597    12.994831    12.994831    12.994831    1.0088118 
   15650    320.84074   -18439.509   -700.39758    12.994831    12.994831    12.994831    1.0088118 
   15700    299.88038   -18464.799    1021.0168    12.994831    12.994831    12.994831    1.0088118 
   15750     329.7287   -18435.033   -6224.3162    12.994831    12.994831    12.994831    1.0088118 
   15800    306.05364   -18453.325    5659.5797    12.994831    12.994831    12.994831    1.0088118 
   15850    328.39942   -18431.787    4082.8003    12.994831    12.994831    12.994831    1.0088118 
   15900     294.3916    -18454.01   -7325.8566    12.994831    12.994831    12.994831    1.0088118 
   15950    267.80399   -18483.505    478.59719    12.994831    12.994831    12.994831    1.0088118 
   16000    308.50679    -18459.86    7429.4033    12.994831    12.994831    12.994831    1.0088118 
   16050    312.34207   -18441.336   -4498.7262    12.994831    12.994831    12.994831    1.0088118 
   16100    318.14689   -18421.973    6221.7623    12.994831    12.994831    12.994831    1.0088118 
   16150    311.99753   -18440.839    545.84312    12.994831    12.994831    12.994831    1.0088118 
   16200    313.82598   -18410.286   -12462.513    12.994831    12.994831    12.994831    1.0088118 
   16250    285.70668   -18427.171   -981.70115    12.994831    12.994831    12.994831    1.0088118 
   16300    310.20216   -18426.745   -2286.4472    12.994831    12.994831    12.994831    1.0088118 
   16350    308.49042   -18434.559   -1677.3761    12.994831    12.994831    12.994831    1.0088118 
   16400    310.82923   -18407.246   -3247.3439    12.994831    12.994831    12.994831    1.0088118 
   16450    293.57348   -18444.702    -420.6483    12.994831    12.994831    12.994831    1.0088118 
   16500    304.02769   -18437.476    -4436.764    12.994831    12.994831    12.994831    1.0088118 
   16550    316.79941   -18417.921    -5773.999    12.994831    12.994831    12.994831    1.0088118 
   16600    295.87965   -18450.961    4894.0827    12.994831    12.994831    12.994831    1.0088118 
   16650    327.58107    -18408.65    2540.6939    12.994831    12.994831    12.994831    1.0088118 
   16700    289.18391   -18445.941   -6780.7851    12.994831    12.994831    12.994831    1.0088118 
   16750    326.92834   -18420.023    10.973781    12.994831    12.994831    12.994831    1.0088118 
   16800    296.24719   -18445.896   -3362.5319    12.994831    12.994831    12.994831    1.0088118 
   16850    266.10011   -18476.103   -1645.3249    12.994831    12.994831    12.994831    1.0088118 
   16900    300.88613   -18436.996   -1179.1427    12.994831    12.994831    12.994831    1.0088118 
   16950    286.06888   -18461.647   -3378.1575    12.994831    12.994831    12.994831    1.0088118 
   17000    294.84389   -18454.801   -6955.5167    12.994831    12.994831    12.994831    1.0088118 
   17050     289.1677   -18437.898    7491.7715    12.994831    12.994831    12.994831    1.0088118 
   17100    279.20115   -18452.168   -4115.6655    12.994831    12.994831    12.994831    1.0088118 
   17150    310.78959   -18423.056   -1595.3321    12.994831    12.994831    12.994831    1.0088118 
   17200    289.03235   -18459.584    401.90749    12.994831    12.994831    12.994831    1.0088118 
   17250    298.10888   -18437.416   -4065.2153    12.994831    12.994831    12.994831    1.0088118 
   17300    326.48479   -18436.474   -2086.0166    12.994831    12.994831    12.994831    1.0088118 
   17350    305.46503   -18438.742   -5524.6952    12.994831    12.994831    12.994831    1.0088118 
   17400    324.70834   -18415.264   -49.700548    12.994831    12.994831    12.994831    1.0088118 
   17450    293.61232   -18454.011    368.03896    12.994831    12.994831    12.994831    1.0088118 
   17500    297.49016   -18437.784    -4577.188    12.994831    12.994831    12.994831    1.0088118 
   17550    295.92387   -18431.233    7013.0529    12.994831    12.994831    12.994831    1.0088118 
   17600    291.45751   -18446.883   -8588.9006    12.994831    12.994831    12.994831    1.0088118 
   17650    319.80758   -18420.567   -2338.4469    12.994831    12.994831    12.994831    1.0088118 
   17700    285.81589   -18451.341    1344.6449    12.994831    12.994831    12.994831    1.0088118 
   17750    326.92196   -18413.347   -3346.2447    12.994831    12.994831    12.994831    1.0088118 
   17800     323.5137   -18408.645    2384.1606    12.994831    12.994831    12.994831    1.0088118 
   17850    306.01144   -18428.305    5999.1038    12.994831    12.994831    12.994831    1.0088118 
   17900    276.83597   -18463.079   -5363.2816    12.994831    12.994831    12.994831    1.0088118 
   17950    321.32982   -18434.691   -6046.9204    12.994831    12.994831    12.994831    1.0088118 
   18000    311.52436   -18447.629   -968.90735    12.994831    12.994831    12.994831    1.0088118 
   18050    284.23127     -18464.9   -2454.3852    12.994831    12.994831    12.994831    1.0088118 
   18100    316.71763   -18428.501     481.3312    12.994831    12.994831    12.994831    1.0088118 
   18150    276.75354   -18445.613   -1258.4346    12.994831    12.994831    12.994831    1.0088118 
   18200    336.35493   -18399.587   -894.61531    12.994831    12.994831    12.994831    1.0088118 
   18250    299.92998   -18431.903   -46.542608    12.994831    12.994831    12.994831    1.0088118 
   18300    299.53096   -18456.463    5588.1056    12.994831    12.994831    12.994831    1.0088118 
   18350    312.45102   -18433.215   -7991.5602    12.994831    12.994831    12.994831    1.0088118 
   18400    300.53204   -18447.488   -8096.9158    12.994831    12.994831    12.994831    1.0088118 
   18450    312.31004   -18459.411     -347.768    12.994831    12.994831    12.994831    1.0088118 
   18500    321.37907   -18435.032    7672.9581    12.994831    12.994831    12.994831    1.0088118 
   18550    302.49469   -18431.499    2318.8817    12.994831    12.994831    12.994831    1.0088118 
   18600    293.48188   -18433.153    219.19275    12.994831    12.994831    12.994831    1.0088118 
   18650    318.05787   -18434.382    2755.5289    12.994831    12.994831    12.994831    1.0088118 
   18700    327.71374   -18412.917    1723.6086    12.994831    12.994831    12.994831    1.0088118 
   18750    306.40981   -18414.763   -2859.5009    12.994831    12.994831    12.994831    1.0088118 
   18800    306.22483   -18426.743   -1436.3608    12.994831    12.994831    12.994831    1.0088118 
   18850    293.11118   -18449.338     3411.399    12.994831    12.994831    12.994831    1.0088118 
   18900     303.5289   -18429.105   -5237.4117    12.994831    12.994831    12.994831    1.0088118 
   18950    279.72593   -18442.917    -1221.551    12.994831    12.994831    12.994831    1.0088118 
   19000    313.51023   -18416.035    -3391.759    12.994831    12.994831    12.994831    1.0088118 
   19050     283.7595   -18450.352   -6068.6703    12.994831    12.994831    12.994831    1.0088118 
   19100    320.51773   -18436.353    247.51847    12.994831    12.994831    12.994831    1.0088118 
   19150    304.98981   -18447.938    710.55941    12.994831    12.994831    12.994831    1.0088118 
   19200     328.9472    -18419.07   -3673.0473    12.994831    12.994831    12.994831    1.0088118 
   19250    296.13559    -18444.09   -2203.7994    12.994831    12.994831    12.994831    1.0088118 
   19300    295.48095    -18435.54    3156.0358    12.994831    12.994831    12.994831    1.0088118 
   19350    299.34186   -18444.108     953.9845    12.994831    12.994831    12.994831    1.0088118 
   19400    304.57014    -18426.78    -3624.166    12.994831    12.994831    12.994831    1.0088118 
   19450    269.72248   -18449.786   -2153.2528    12.994831    12.994831    12.994831    1.0088118 
   19500    289.51331   -18423.044    1657.0273    12.994831    12.994831    12.994831    1.0088118 
   19550    304.13716   -18405.499   -1527.3401    12.994831    12.994831    12.994831    1.0088118 
   19600     274.0434    -18451.42   -4217.1573    12.994831    12.994831    12.994831    1.0088118 
   19650    313.85884   -18429.254    -2220.359    12.994831    12.994831    12.994831    1.0088118 
   19700    274.13006   -18452.492   -692.22062    12.994831    12.994831    12.994831    1.0088118 
   19750    306.57918    -18436.69   -3494.6414    12.994831    12.994831    12.994831    1.0088118 
   19800    302.10803   -18448.434    444.87287    12.994831    12.994831    12.994831    1.0088118 
   19850    328.65141   -18411.704    1016.7712    12.994831    12.994831    12.994831    1.0088118 
   19900    295.65936   -18446.547    2444.0578    12.994831    12.994831    12.994831    1.0088118 
   19950    307.96265   -18417.575     3416.723    12.994831    12.994831    12.994831    1.0088118 
   20000    314.79432   -18429.225   -569.95661    12.994831    12.994831    12.994831    1.0088118 
   20050     301.0772   -18455.156    2308.8654    12.994831    12.994831    12.994831    1.0088118 
   20100    307.94683   -18440.528   -1144.2903    12.994831    12.994831    12.994831    1.0088118 
   20150    287.17353   -18456.741    2614.6211    12.994831    12.994831    12.994831    1.0088118 
   20200      308.336   -18452.055    3364.7226    12.994831    12.994831    12.994831    1.0088118 
   20250    292.08771   -18478.127     302.6479    12.994831    12.994831    12.994831    1.0088118 
   20300    314.48877   -18444.715    1556.2259    12.994831    12.994831    12.994831    1.0088118 
   20350    297.26639   -18474.783   -76.982392    12.994831    12.994831    12.994831    1.0088118 
   20400    321.05885   -18447.009   -396.39954    12.994831    12.994831    12.994831    1.0088118 
   20450    294.35284   -18454.507   -1262.2933    12.994831    12.994831    12.994831    1.0088118 
   20500     313.7555   -18450.069   -5848.3533    12.994831    12.994831    12.994831    1.0088118 
   20550    303.85552   -18442.722    1541.3769    12.994831    12.994831    12.994831    1.0088118 
   20600     315.6462   -18437.238    603.20423    12.994831    12.994831    12.994831    1.0088118 
   20650    308.25436   -18459.091   -1529.0287    12.994831    12.994831    12.994831    1.0088118 
   20700     316.3385   -18429.108    1254.6169    12.994831    12.994831    12.994831    1.0088118 
   20750    295.71639   -18448.555   -4349.8014    12.994831    12.994831    12.994831    1.0088118 
   20800    345.99757   -18421.641    5441.7471    12.994831    12.994831    12.994831    1.0088118 
   20850      298.277   -18449.323    3315.6533    12.994831    12.994831    12.994831    1.0088118 
   20900     282.0896   -18475.846    3248.8571    12.994831    12.994831    12.994831    1.0088118 
   20950    287.95054   -18460.257   -7662.4438    12.994831    12.994831    12.994831    1.0088118 
   21000     295.3294   -18467.346    340.33503    12.994831    12.994831    12.994831    1.0088118 
   21050    312.57121   -18430.447   -6241.5399    12.994831    12.994831    12.994831    1.0088118 
   21100    287.95605   -18445.421   -1699.6358    12.994831    12.994831    12.994831    1.0088118 
   21150    311.55901   -18436.512    5665.4959    12.994831    12.994831    12.994831    1.0088118 
   21200    285.61857   -18472.226   -2094.4752    12.994831    12.994831    12.994831    1.0088118 
   21250    324.47748   -18437.013    4542.2929    12.994831    12.994831    12.994831    1.0088118 
   21300    299.28152   -18451.328   -1990.6551    12.994831    12.994831    12.994831    1.0088118 
   21350    287.45672   -18453.289   -3091.2541    12.994831    12.994831    12.994831    1.0088118 
   21400    297.64481    -18435.54    1757.5547    12.994831    12.994831    12.994831    1.0088118 
   21450     301.5208   -18464.046   -2886.2102    12.994831    12.994831    12.994831    1.0088118 
   21500    312.48206   -18433.634   -537.99683    12.994831    12.994831    12.994831    1.0088118 
   21550    263.87638   -18456.643   -3866.2919    12.994831    12.994831    12.994831    1.0088118 
   21600    297.50017    -18436.47   -1361.0115    12.994831    12.994831    12.994831    1.0088118 
   21650    274.76175   -18462.658   -1770.7764    12.994831    12.994831    12.994831    1.0088118 
   21700    308.85501   -18431.183    1231.0989    12.994831    12.994831    12.994831    1.0088118 
   21750    292.58993   -18436.785   -1576.5212    12.994831    12.994831    12.994831    1.0088118 
   21800     291.0156    -18450.87     1272.071    12.994831    12.994831    12.994831    1.0088118 
   21850    307.58836    -18450.15   -2256.0886    12.994831    12.994831    12.994831    1.0088118 
   21900    280.58197   -18471.808    2181.7945    12.994831    12.994831    12.994831    1.0088118 
   21950    293.69344   -18438.654   -830.22002    12.994831    12.994831    12.994831    1.0088118 
   22000    303.96846   -18433.714    1855.1753    12.994831    12.994831    12.994831    1.0088118 
   22050    297.13803   -18436.541   -4881.5478    12.994831    12.994831    12.994831    1.0088118 
   22100    284.55415   -18442.527   -431.15813    12.994831    12.994831    12.994831    1.0088118 
   22150    299.38934   -18436.737   -1959.1509    12.994831    12.994831    12.994831    1.0088118 
   22200     319.5621   -18410.927   -4698.8691    12.994831    12.994831    12.994831    1.0088118 
   22250     282.9469    -18439.29    1096.1485    12.994831    12.994831    12.994831    1.0088118 
   22300     304.2257    -18428.42    1801.6102    12.994831    12.994831    12.994831    1.0088118 
   22350    275.99362   -18457.271    -366.1615    12.994831    12.994831    12.994831    1.0088118 
   22400    304.04033   -18448.298   -1562.9184    12.994831    12.994831    12.994831    1.0088118 
   22450    288.21163   -18469.446   -4250.9575    12.994831    12.994831    12.994831    1.0088118 
   22500    286.47301   -18447.326    722.02569    12.994831    12.994831    12.994831    1.0088118 
   22550    312.53612   -18432.795   -6079.7614    12.994831    12.994831    12.994831    1.0088118 
   22600    282.84263   -18465.017   -676.68107    12.994831    12.994831    12.994831    1.0088118 
   22650    277.06024   -18461.595   -1465.1889    12.994831    12.994831    12.994831    1.0088118 
   22700     320.1498   -18427.988   -1633.5088    12.994831    12.994831    12.994831    1.0088118 
   22750    302.43474   -18438.057    3300.3608    12.994831    12.994831    12.994831    1.0088118 
   22800    275.71772   -18458.653   -3294.1551    12.994831    12.994831    12.994831    1.0088118 
   22850    292.31573   -18452.587   -5032.4062    12.994831    12.994831    12.994831    1.0088118 
   22900    313.49343   -18429.119    6495.7907    12.994831    12.994831    12.994831    1.0088118 
   22950    296.78488   -18436.623   -4649.1137    12.994831    12.994831    12.994831    1.0088118 
   23000    303.62421    -18444.04    45.351602    12.994831    12.994831    12.994831    1.0088118 
   23050    316.66945   -18435.976    3532.6704    12.994831    12.994831    12.994831    1.0088118 
   23100    310.68605   -18424.086   -1989.7577    12.994831    12.994831    12.994831    1.0088118 
   23150    290.73394   -18449.189    934.27963    12.994831    12.994831    12.994831    1.0088118 
   23200    292.78491   -18435.451    6145.0647    12.994831    12.994831    12.994831    1.0088118 
   23250    348.65947   -18398.831    1105.2546    12.994831    12.994831    12.994831    1.0088118 
   23300    299.85164   -18442.175   -1951.8068    12.994831    12.994831    12.994831    1.0088118 
   23350    302.84417   -18424.939    1539.0605    12.994831    12.994831    12.994831    1.0088118 
   23400    290.51982   -18423.554    6183.8391    12.994831    12.994831    12.994831    1.0088118 
   23450    251.82182     -18468.3   -6472.9843    12.994831    12.994831    12.994831    1.0088118 
   23500    288.94715   -18448.649    1781.9746    12.994831    12.994831    12.994831    1.0088118 
   23550    311.19644   -18440.505   -447.00269    12.994831    12.994831    12.994831    1.0088118 
   23600    300.67866   -18459.737   -5980.3982    12.994831    12.994831    12.994831    1.0088118 
   23650    308.22848   -18424.913    1793.2624    12.994831    12.994831    12.994831    1.0088118 
   23700    305.31614   -18437.564    7321.4354    12.994831    12.994831    12.994831    1.0088118 
   23750    309.38368   -18420.179   -5148.6442    12.994831    12.994831    12.994831    1.0088118 
   23800    285.63883   -18442.896   -1696.3925    12.994831    12.994831    12.994831    1.0088118 
   23850    307.51212   -18446.457   -2544.9361    12.994831    12.994831    12.994831    1.0088118 
   23900    313.75977   -18444.792    237.85835    12.994831    12.994831    12.994831    1.0088118 
   23950    305.91482   -18445.466   -778.57021    12.994831    12.994831    12.994831    1.0088118 
   24000    298.84415   -18428.757    2249.8791    12.994831    12.994831    12.994831    1.0088118 
   24050     295.7093   -18465.937   -7810.9055    12.994831    12.994831    12.994831    1.0088118 
   24100    286.02578   -18445.544    1781.3655    12.994831    12.994831    12.994831    1.0088118 
   24150    282.24547    -18467.61    7935.1773    12.994831    12.994831    12.994831    1.0088118 
   24200    298.76331   -18450.259   -3889.6173    12.994831    12.994831    12.994831    1.0088118 
   24250    300.46442   -18453.488     921.0939    12.994831    12.994831    12.994831    1.0088118 
   24300    283.65808    -18466.98    11201.757    12.994831    12.994831    12.994831    1.0088118 
   24350    302.31806   -18433.353   -6025.3151    12.994831    12.994831    12.994831    1.0088118 
   24400    272.54917   -18468.938    6067.7578    12.994831    12.994831    12.994831    1.0088118 
   24450    311.73949   -18434.491     5442.363    12.994831    12.994831    12.994831    1.0088118 
   24500    301.68144   -18458.104   -5688.9145    12.994831    12.994831    12.994831    1.0088118 
   24550    296.35026   -18461.385    3474.1732    12.994831    12.994831    12.994831    1.0088118 
   24600    284.69877   -18468.451    3198.0783    12.994831    12.994831    12.994831    1.0088118 
   24650     337.4706   -18428.698   -2189.2697    12.994831    12.994831    12.994831    1.0088118 
   24700    297.11212   -18459.825    9436.2867    12.994831    12.994831    12.994831    1.0088118 
   24750    280.81873   -18472.461   -4060.8944    12.994831    12.994831    12.994831    1.0088118 
   24800    298.55656    -18472.78   -5397.4275    12.994831    12.994831    12.994831    1.0088118 
   24850    315.98908   -18455.372   -775.27045    12.994831    12.994831    12.994831    1.0088118 
   24900     306.1705   -18432.829   -3560.6157    12.994831    12.994831    12.994831    1.0088118 
   24950     274.5938   -18456.238   -147.84837    12.994831    12.994831    12.994831    1.0088118 
   25000     328.2383   -18428.388   -374.77438    12.994831    12.994831    12.994831    1.0088118 
   25050    285.79533   -18445.889   -1601.8632    12.994831    12.994831    12.994831    1.0088118 
   25100    304.95323   -18446.493   -2441.9998    12.994831    12.994831    12.994831    1.0088118 
   25150    320.02905   -18444.059    -2831.451    12.994831    12.994831    12.994831    1.0088118 
   25200    282.67753   -18428.154   -1287.2977    12.994831    12.994831    12.994831    1.0088118 
   25250     305.8762    -18428.73    7969.5297    12.994831    12.994831    12.994831    1.0088118 
   25300    296.88452   -18442.946   -6623.6816    12.994831    12.994831    12.994831    1.0088118 
   25350    307.16944   -18404.717    991.63295    12.994831    12.994831    12.994831    1.0088118 
   25400    276.31423   -18445.656    8310.4421    12.994831    12.994831    12.994831    1.0088118 
   25450    311.38703   -18442.381   -2765.1293    12.994831    12.994831    12.994831    1.0088118 
   25500    285.27178   -18456.959   -2830.6856    12.994831    12.994831    12.994831    1.0088118 
   25550    316.71633   -18437.687    4086.1045    12.994831    12.994831    12.994831    1.0088118 
   25600    297.48171   -18446.582    2065.2987    12.994831    12.994831    12.994831    1.0088118 
   25650    293.30059   -18460.062    74.358422    12.994831    12.994831    12.994831    1.0088118 
   25700    320.93696   -18453.054    -1590.166    12.994831    12.994831    12.994831    1.0088118 
   25750    296.17809   -18468.944    -806.3792    12.994831    12.994831    12.994831    1.0088118 
   25800    287.41886   -18476.076   -1685.8559    12.994831    12.994831    12.994831    1.0088118 
   25850    315.14537   -18439.555    215.23472    12.994831    12.994831    12.994831    1.0088118 
   25900    266.44492   -18474.715   -2182.7963    12.994831    12.994831    12.994831    1.0088118 
   25950     303.2872   -18457.861   -2020.2237    12.994831    12.994831    12.994831    1.0088118 
   26000    263.59569    -18496.52   -98.053431    12.994831    12.994831    12.994831    1.0088118 
   26050    300.33546   -18455.678    912.24578    12.994831    12.994831    12.994831    1.0088118 
   26100    295.79437   -18449.562   -2489.6204    12.994831    12.994831    12.994831    1.0088118 
   26150    300.94794   -18438.576   -539.40541    12.994831    12.994831    12.994831    1.0088118 
   26200    287.81432   -18458.538   -70.517573    12.994831    12.994831    12.994831    1.0088118 
   26250    286.82791   -18441.254   -1631.6017    12.994831    12.994831    12.994831    1.0088118 
   26300     297.4587   -18449.058    -5826.188    12.994831    12.994831    12.994831    1.0088118 
   26350    295.63828   -18464.628   -2727.4015    12.994831    12.994831    12.994831    1.0088118 
   26400    311.83249   -18439.846    685.94663    12.994831    12.994831    12.994831    1.0088118 
   26450    293.35448     -18450.1    739.87529    12.994831    12.994831    12.994831    1.0088118 
   26500      326.162   -18427.452   -5123.6954    12.994831    12.994831    12.994831    1.0088118 
   26550    302.93496   -18465.919    1120.8163    12.994831    12.994831    12.994831    1.0088118 
   26600    308.29285   -18459.291   -450.71156    12.994831    12.994831    12.994831    1.0088118 
   26650    292.71975   -18449.309    -3527.118    12.994831    12.994831    12.994831    1.0088118 
   26700    280.77709    -18476.33   -6257.7465    12.994831    12.994831    12.994831    1.0088118 
   26750     303.3665    -18468.85    -1833.526    12.994831    12.994831    12.994831    1.0088118 
   26800    299.78392     -18446.4    -603.0332    12.994831    12.994831    12.994831    1.0088118 
   26850    296.12676    -18472.58   -975.87485    12.994831    12.994831    12.994831    1.0088118 
   26900     324.1244   -18459.196   -1199.9216    12.994831    12.994831    12.994831    1.0088118 
   26950    288.10964   -18493.338   -1614.4836    12.994831    12.994831    12.994831    1.0088118 
   27000     311.2978   -18477.564    -1688.563    12.994831    12.994831    12.994831    1.0088118 
   27050    306.77381   -18456.347     4684.322    12.994831    12.994831    12.994831    1.0088118 
   27100    307.30687   -18441.161   -5296.8568    12.994831    12.994831    12.994831    1.0088118 
   27150    324.72256   -18455.803   -2834.5803    12.994831    12.994831    12.994831    1.0088118 
   27200    313.88974   -18447.933    5693.9169    12.994831    12.994831    12.994831    1.0088118 
   27250    279.29058   -18454.632   -4177.4625    12.994831    12.994831    12.994831    1.0088118 
   27300    276.18974   -18459.585    3823.8991    12.994831    12.994831    12.994831    1.0088118 
   27350     293.0116   -18450.131    6475.3896    12.994831    12.994831    12.994831    1.0088118 
   27400    258.16586   -18496.507   -10470.264    12.994831    12.994831    12.994831    1.0088118 
   27450    320.53034     -18444.8   -1441.2884    12.994831    12.994831    12.994831    1.0088118 
   27500    274.07557   -18486.461   -4882.7912    12.994831    12.994831    12.994831    1.0088118 
   27550    309.69742   -18451.342   -4578.8287    12.994831    12.994831    12.994831    1.0088118 
   27600    312.43958   -18441.287   -1625.7071    12.994831    12.994831    12.994831    1.0088118 
   27650    281.55713   -18470.984   -4955.0201    12.994831    12.994831    12.994831    1.0088118 
   27700    309.36166   -18442.535   -1251.1789    12.994831    12.994831    12.994831    1.0088118 
   27750    294.99154   -18476.799   -2444.7432    12.994831    12.994831    12.994831    1.0088118 
   27800    339.34019   -18427.726   -6432.4212    12.994831    12.994831    12.994831    1.0088118 
   27850    292.38741   -18466.851    3799.0047    12.994831    12.994831    12.994831    1.0088118 
   27900    290.33948   -18482.988    6802.8602    12.994831    12.994831    12.994831    1.0088118 
   27950    320.04835   -18457.968   -1060.3407    12.994831    12.994831    12.994831    1.0088118 
   28000    298.53207   -18481.717   -689.40954    12.994831    12.994831    12.994831    1.0088118 
   28050     293.1125   -18487.565    5136.1669    12.994831    12.994831    12.994831    1.0088118 
   28100    334.75885   -18474.296   -2382.1535    12.994831    12.994831    12.994831    1.0088118 
   28150    294.66778     -18480.5   -2275.4256    12.994831    12.994831    12.994831    1.0088118 
   28200    305.35959   -18440.085    1359.1638    12.994831    12.994831    12.994831    1.0088118 
   28250    292.92203   -18463.598    2368.9962    12.994831    12.994831    12.994831    1.0088118 
   28300    279.42038   -18468.423    9821.5359    12.994831    12.994831    12.994831    1.0088118 
   28350    298.06737   -18442.695   -4925.9376    12.994831    12.994831    12.994831    1.0088118 
   28400    282.50474   -18468.851   -3707.5879    12.994831    12.994831    12.994831    1.0088118 
   28450    328.61337   -18452.048   -673.64135    12.994831    12.994831    12.994831    1.0088118 
   28500    289.22675    -18473.29   -2559.2296    12.994831    12.994831    12.994831    1.0088118 
   28550    303.50923   -18460.846    4311.9923    12.994831    12.994831    12.994831    1.0088118 
   28600    321.82642   -18441.306   -2532.5932    12.994831    12.994831    12.994831    1.0088118 
   28650     284.6311   -18472.543   -6546.7825    12.994831    12.994831    12.994831    1.0088118 
   28700    294.58343   -18461.589    4801.7277    12.994831    12.994831    12.994831    1.0088118 
   28750    284.18314   -18479.117   -1988.8571    12.994831    12.994831    12.994831    1.0088118 
   28800    295.70395   -18443.902   -3789.2823    12.994831    12.994831    12.994831    1.0088118 
   28850    296.96117   -18462.048    2337.1508    12.994831    12.994831    12.994831    1.0088118 
   28900    288.11736    -18466.11   -2117.5092    12.994831    12.994831    12.994831    1.0088118 
   28950    300.96367   -18467.071   -953.65479    12.994831    12.994831    12.994831    1.0088118 
   29000    317.06711   -18455.886   -664.55108    12.994831    12.994831    12.994831    1.0088118 
   29050    306.80812   -18466.931    943.71266    12.994831    12.994831    12.994831    1.0088118 
   29100    308.37265   -18450.696    4045.3493    12.994831    12.994831    12.994831    1.0088118 
   29150    299.50442   -18465.597   -5522.8071    12.994831    12.994831    12.994831    1.0088118 
   29200    329.15832   -18438.779    202.77384    12.994831    12.994831    12.994831    1.0088118 
   29250    293.27689   -18464.445    9030.2111    12.994831    12.994831    12.994831    1.0088118 
   29300    313.43645   -18429.717   -2317.7072    12.994831    12.994831    12.994831    1.0088118 
   29350     315.2612   -18442.007   -7378.0476    12.994831    12.994831    12.994831    1.0088118 
   29400    313.06376   -18447.157    964.57544    12.994831    12.994831    12.994831    1.0088118 
   29450    298.61234   -18437.993   -4767.1107    12.994831    12.994831    12.994831    1.0088118 
   29500    280.38554   -18474.687   -4721.7658    12.994831    12.994831    12.994831    1.0088118 
   29550    304.14791   -18448.148   -103.02853    12.994831    12.994831    12.994831    1.0088118 
   29600    302.48112   -18463.475    2167.9957    12.994831    12.994831    12.994831    1.0088118 
   29650    301.95688   -18464.475   -1785.4778    12.994831    12.994831    12.994831    1.0088118 
   29700    279.34815   -18474.319    4934.2009    12.994831    12.994831    12.994831    1.0088118 
   29750    330.57588   -18438.514   -5213.5671    12.994831    12.994831    12.994831    1.0088118 
   29800     295.9795   -18459.058   -2181.7529    12.994831    12.994831    12.994831    1.0088118 
   29850     320.0229   -18439.244   -1256.1159    12.994831    12.994831    12.994831    1.0088118 
   29900    302.86233   -18464.561   -1708.7393    12.994831    12.994831    12.994831    1.0088118 
   29950    345.42732   -18433.909    2089.9536    12.994831    12.994831    12.994831    1.0088118 
   30000    307.26048   -18445.052   -2650.0416    12.994831    12.994831    12.994831    1.0088118 
   30050    315.95344   -18442.775   -6360.2101    12.994831    12.994831    12.994831    1.0088118 
   30100    310.39175   -18433.047   -1358.3919    12.994831    12.994831    12.994831    1.0088118 
   30150    296.76246   -18449.329   -2860.2129    12.994831    12.994831    12.994831    1.0088118 
   30200    311.06976   -18440.273   -6234.9719    12.994831    12.994831    12.994831    1.0088118 
   30250    312.38731     -18405.1    2218.1551    12.994831    12.994831    12.994831    1.0088118 
   30300    292.95384    -18445.28    4634.8837    12.994831    12.994831    12.994831    1.0088118 
   30350    345.59727   -18409.233   -131.58079    12.994831    12.994831    12.994831    1.0088118 
   30400    299.24236   -18453.911    1770.8594    12.994831    12.994831    12.994831    1.0088118 
   30450    281.53822   -18481.965   -3297.6345    12.994831    12.994831    12.994831    1.0088118 
   30500    317.87018   -18446.032   -3730.8085    12.994831    12.994831    12.994831    1.0088118 
   30550    300.60673   -18455.732    1812.5614    12.994831    12.994831    12.994831    1.0088118 
   30600    285.86691   -18485.673   -3586.6294    12.994831    12.994831    12.994831    1.0088118 
   30650    288.26365   -18480.639    4142.8313    12.994831    12.994831    12.994831    1.0088118 
   30700    305.65157   -18463.506     2338.416    12.994831    12.994831    12.994831    1.0088118 
   30750    297.43118   -18487.887   -4403.6056    12.994831    12.994831    12.994831    1.0088118 
   30800    286.97546   -18474.531   -852.11729    12.994831    12.994831    12.994831    1.0088118 
   30850    273.92856   -18472.461   -7644.4501    12.994831    12.994831    12.994831    1.0088118 
   30900    315.26264   -18456.869   -4300.2031    12.994831    12.994831    12.994831    1.0088118 
   30950    275.83884   -18470.382    1468.2297    12.994831    12.994831    12.994831    1.0088118 
   31000    294.83006   -18478.998    1754.2764    12.994831    12.994831    12.994831    1.0088118 
   31050    312.93723   -18454.409   -1048.0881    12.994831    12.994831    12.994831    1.0088118 
   31100    285.10278   -18463.786   -4782.9905    12.994831    12.994831    12.994831    1.0088118 
   31150    307.67126   -18428.554   -6172.9201    12.994831    12.994831    12.994831    1.0088118 
   31200    265.84765   -18452.228   -848.28179    12.994831    12.994831    12.994831    1.0088118 
   31250    330.28545   -18419.569   -1694.4174    12.994831    12.994831    12.994831    1.0088118 
   31300    306.97026    -18413.94   -2142.7348    12.994831    12.994831    12.994831    1.0088118 
   31350    296.52495   -18433.498    7230.4292    12.994831    12.994831    12.994831    1.0088118 
   31400    289.43769   -18458.159   -7877.0337    12.994831    12.994831    12.994831    1.0088118 
   31450    311.36455    -18437.74   -3086.9351    12.994831    12.994831    12.994831    1.0088118 
   31500    299.60413   -18449.841    84.918691    12.994831    12.994831    12.994831    1.0088118 
   31550     323.9769   -18417.011   -8671.0981    12.994831    12.994831    12.994831    1.0088118 
   31600    301.49015   -18441.875    2681.3386    12.994831    12.994831    12.994831    1.0088118 
   31650    282.11449   -18468.117   -2612.3437    12.994831    12.994831    12.994831    1.0088118 
   31700    328.65158    -18432.31   -5446.5102    12.994831    12.994831    12.994831    1.0088118 
   31750    313.02825   -18417.952    5694.8934    12.994831    12.994831    12.994831    1.0088118 
   31800    320.19904   -18422.796   -4185.4815    12.994831    12.994831    12.994831    1.0088118 
   31850    310.53583   -18432.239    4095.7134    12.994831    12.994831    12.994831    1.0088118 
   31900    291.97475     -18448.7   -1866.2583    12.994831    12.994831    12.994831    1.0088118 
   31950    299.13299   -18465.834   -6309.0064    12.994831    12.994831    12.994831    1.0088118 
   32000    300.05594   -18428.291    4583.2049    12.994831    12.994831    12.994831    1.0088118 
   32050     297.3653   -18455.828   -1934.1707    12.994831    12.994831    12.994831    1.0088118 
   32100    320.45102   -18437.722   -2815.5288    12.994831    12.994831    12.994831    1.0088118 
   32150    283.05012   -18469.873    451.14247    12.994831    12.994831    12.994831    1.0088118 
   32200    288.58605    -18434.46   -536.90383    12.994831    12.994831    12.994831    1.0088118 
   32250    284.75838   -18450.226    1004.9964    12.994831    12.994831    12.994831    1.0088118 
   32300    311.37751   -18419.741   -2615.3787    12.994831    12.994831    12.994831    1.0088118 
   32350    279.30123   -18456.791   -1970.8082    12.994831    12.994831    12.994831    1.0088118 
   32400    294.86946   -18422.147   -916.03703    12.994831    12.994831    12.994831    1.0088118 
   32450    338.78072   -18392.263   -693.82961    12.994831    12.994831    12.994831    1.0088118 
   32500    299.51114   -18428.942   -3493.1103    12.994831    12.994831    12.994831    1.0088118 
   32550    289.60965   -18453.616    307.99456    12.994831    12.994831    12.994831    1.0088118 
   32600    297.29892   -18445.342   -4248.6119    12.994831    12.994831    12.994831    1.0088118 
   32650     306.3181   -18440.356   -3663.0646    12.994831    12.994831    12.994831    1.0088118 
   32700    316.35241   -18469.185    8991.3881    12.994831    12.994831    12.994831    1.0088118 
   32750    292.60015    -18474.08   -3399.1512    12.994831    12.994831    12.994831    1.0088118 
   32800    311.19554   -18453.206    -6352.764    12.994831    12.994831    12.994831    1.0088118 
   32850    282.46181   -18472.419    8486.0388    12.994831    12.994831    12.994831    1.0088118 
   32900     310.3526   -18432.964    1018.4157    12.994831    12.994831    12.994831    1.0088118 
   32950    311.15888   -18404.171   -2136.6318    12.994831    12.994831    12.994831    1.0088118 
   33000    307.77002   -18443.655     2968.827    12.994831    12.994831    12.994831    1.0088118 
   33050    302.29286   -18458.418    1258.8928    12.994831    12.994831    12.994831    1.0088118 
   33100     299.1038   -18458.237   -268.71774    12.994831    12.994831    12.994831    1.0088118 
   33150    321.51604   -18445.107    3408.9079    12.994831    12.994831    12.994831    1.0088118 
   33200    302.06317   -18442.884    -2324.368    12.994831    12.994831    12.994831    1.0088118 
   33250    292.35921   -18421.275   -950.02476    12.994831    12.994831    12.994831    1.0088118 
   33300    264.40285   -18442.316    2929.7548    12.994831    12.994831    12.994831    1.0088118 
   33350    311.94088   -18416.505   -2703.9529    12.994831    12.994831    12.994831    1.0088118 
   33400     285.0726   -18425.465   -6260.4263    12.994831    12.994831    12.994831    1.0088118 
   33450    296.23686   -18432.009   -986.80389    12.994831    12.994831    12.994831    1.0088118 
   33500    310.96161   -18447.233      7930.84    12.994831    12.994831    12.994831    1.0088118 
   33550    302.68295   -18446.928   -5790.9019    12.994831    12.994831    12.994831    1.0088118 
   33600    302.38613   -18451.557   -809.18644    12.994831    12.994831    12.994831    1.0088118 
   33650    277.65961   -18454.234    2409.3678    12.994831    12.994831    12.994831    1.0088118 
   33700    284.72317   -18459.587    -3006.282    12.994831    12.994831    12.994831    1.0088118 
   33750    266.81225   -18477.243   -3173.6362    12.994831    12.994831    12.994831    1.0088118 
   33800    276.83051   -18449.733   -932.68601    12.994831    12.994831    12.994831    1.0088118 
   33850    301.66162   -18457.313    1315.2407    12.994831    12.994831    12.994831    1.0088118 
   33900    306.42297   -18446.889   -1161.5925    12.994831    12.994831    12.994831    1.0088118 
   33950    283.56576   -18444.212    1369.7642    12.994831    12.994831    12.994831    1.0088118 
   34000    293.48682   -18428.446   -4097.7343    12.994831    12.994831    12.994831    1.0088118 
   34050    285.93626   -18451.735   -2761.0782    12.994831    12.994831    12.994831    1.0088118 
   34100    325.45902    -18427.97   -3998.9649    12.994831    12.994831    12.994831    1.0088118 
   34150    327.60055   -18427.084   -115.66888    12.994831    12.994831    12.994831    1.0088118 
   34200    275.50234   -18450.923   -954.02177    12.994831    12.994831    12.994831    1.0088118 
   34250     310.6799   -18429.437   -2903.1913    12.994831    12.994831    12.994831    1.0088118 
   34300    290.59816   -18440.268   -2183.6498    12.994831    12.994831    12.994831    1.0088118 
   34350    316.05767   -18424.825   -3474.8188    12.994831    12.994831    12.994831    1.0088118 
   34400    289.15752   -18420.771    -951.7046    12.994831    12.994831    12.994831    1.0088118 
   34450    319.68301   -18415.628    1215.5695    12.994831    12.994831    12.994831    1.0088118 
   34500    297.07164   -18445.008   -5108.9021    12.994831    12.994831    12.994831    1.0088118 
   34550    325.67718   -18421.545   -5056.0791    12.994831    12.994831    12.994831    1.0088118 
   34600    332.15906   -18389.302    2945.2734    12.994831    12.994831    12.994831    1.0088118 
   34650    292.44364   -18428.343   -11051.467    12.994831    12.994831    12.994831    1.0088118 
   34700     329.7806   -18400.824   -1880.7624    12.994831    12.994831    12.994831    1.0088118 
   34750    300.39331   -18427.539    1193.6666    12.994831    12.994831    12.994831    1.0088118 
   34800    326.24336   -18407.922   -7559.6595    12.994831    12.994831    12.994831    1.0088118 
   34850    314.30031    -18423.51   -3779.3842    12.994831    12.994831    12.994831    1.0088118 
   34900    322.90859   -18412.342    2862.3783    12.994831    12.994831    12.994831    1.0088118 
   34950     289.8082   -18438.893   -2080.9459    12.994831    12.994831    12.994831    1.0088118 
   35000    288.86095   -18441.479   -3973.8331    12.994831    12.994831    12.994831    1.0088118 
   35050    320.15805   -18418.813    2501.8467    12.994831    12.994831    12.994831    1.0088118 
   35100    288.33744   -18448.746    3273.6662    12.994831    12.994831    12.994831    1.0088118 
   35150     271.0585   -18456.221    2823.1357    12.994831    12.994831    12.994831    1.0088118 
   35200    292.59236   -18442.975   -1862.1162    12.994831    12.994831    12.994831    1.0088118 
   35250    321.13318    -18412.52   -206.74241    12.994831    12.994831    12.994831    1.0088118 
   35300    295.07114    -18440.75    1393.3739    12.994831    12.994831    12.994831    1.0088118 
   35350     303.6024   -18427.613   -480.05745    12.994831    12.994831    12.994831    1.0088118 
   35400    278.14431   -18450.247   -284.88853    12.994831    12.994831    12.994831    1.0088118 
   35450    292.04095   -18424.461   -3221.7005    12.994831    12.994831    12.994831    1.0088118 
   35500    300.47643   -18424.581    10980.624    12.994831    12.994831    12.994831    1.0088118 
   35550    277.09015    -18441.14   -2646.4243    12.994831    12.994831    12.994831    1.0088118 
   35600    289.68836   -18448.158   -234.42664    12.994831    12.994831    12.994831    1.0088118 
   35650    274.93184    -18478.19     1668.889    12.994831    12.994831    12.994831    1.0088118 
   35700     320.7886   -18435.172    4997.9042    12.994831    12.994831    12.994831    1.0088118 
   35750    309.11204   -18446.496   -1736.1646    12.994831    12.994831    12.994831    1.0088118 
   35800     295.4326   -18429.661   -1199.6078    12.994831    12.994831    12.994831    1.0088118 
   35850    316.56146     -18437.9    88.694662    12.994831    12.994831    12.994831    1.0088118 
   35900    307.67566   -18423.287    3136.3313    12.994831    12.994831    12.994831    1.0088118 
   35950    331.11986   -18418.655    10.030362    12.994831    12.994831    12.994831    1.0088118 
   36000    289.67542   -18461.741   -5669.8104    12.994831    12.994831    12.994831    1.0088118 
[...]
  190000    292.85038   -18453.519    1082.4773    1.0088118   0.22745889    92.762518    6.2870688 
  192000    300.22772   -18445.912    4339.2404    1.0088118   0.22785363    94.575165    6.2787108 
  194000    283.61709   -18483.714   -6202.3188    1.0088118    0.2282859    98.321467    6.4000653 
  196000    302.89144   -18447.221   -10272.047    1.0088118   0.22869472    98.677397    6.3429951 
  198000    312.19098   -18437.043   -1804.3149    1.0088118   0.22905368    100.55159    6.2694984 
  200000    309.72633   -18428.106    700.55876    1.0088118   0.22928873    100.41008    6.2599234 
  202000    295.82371   -18442.199   -6833.8958    1.0088118   0.22967157    104.31826    6.1309729 
  204000    297.23297   -18450.545     1877.465    1.0088118   0.23014259    106.92633    6.0917195 
  206000    303.60243    -18444.78   -595.48427    1.0088118   0.23058184    108.23652     6.034031 
  208000    304.56295   -18435.304   -2471.8276    1.0088118   0.23098016     109.0649    5.9865477 
  210000    278.22273   -18446.556   -2308.7329    1.0088118   0.23128155    109.36394    5.9684063 
  212000    313.27086    -18426.34      2718.54    1.0088118   0.23153245    110.02311    5.9623144 
  214000    289.03476   -18451.243   -8481.5825    1.0088118   0.23178015    111.69188    6.1118354 
  216000    286.36113   -18457.652     825.4645    1.0088118   0.23202525    114.20442    6.1764529 
  218000    288.51403    -18434.68   -2143.7186    1.0088118   0.23228702    114.18416    6.1466159 
  220000    287.97557   -18463.596    1116.6909    1.0088118   0.23243574    113.52305    6.2508255 
  222000    303.14227   -18444.361   -3300.8656    1.0088118   0.23258666    114.02983    6.2167446 
  224000    302.01127    -18475.04   -2762.3018    1.0088118   0.23265976    115.89252    6.2030356 
  226000    304.77445   -18435.905   -4039.7338    1.0088118   0.23261602    114.48403    6.1824689 
  228000    283.68325   -18461.647   -4030.9964    1.0088118   0.23255665    116.76298    6.1883077 
  230000    285.74822   -18478.013    532.48327    1.0088118   0.23243676     115.8292     6.199268 
  232000    308.58782   -18469.434    5412.9764    1.0088118   0.23224428    116.10005    6.1491959 
  234000    306.63922   -18439.571    -291.5766    1.0088118   0.23204503     115.3495    6.1197236 
  236000    320.26155   -18412.127   -4245.2099    1.0088118   0.23176281    115.28361    6.0806816 
  238000    302.75609   -18419.343   -2201.5252    1.0088118   0.23147925    115.45832    6.1097373 
  240000    321.82841   -18426.886    2253.5744    1.0088118   0.23119984    120.57952    6.0533102 
  242000    322.40026    -18457.41   -4630.0236    1.0088118   0.23106003     122.5117    6.0531737 
  244000     287.4306   -18464.275    9692.8927    1.0088118   0.23082532    120.68155    5.9541027 
  246000    319.47447   -18450.198    1019.1445    1.0088118   0.23055473    121.36705    5.9833211 
  248000    314.65566   -18450.341    3490.4355    1.0088118   0.23025595    123.92619    5.9256608 
  250000    329.91719   -18423.171    1043.6238    1.0088118   0.23003131    125.18413    5.8793544 
  252000    284.68084    -18442.86   -3666.0964    1.0088118   0.22972696     122.5786    5.8653522 
  254000    306.22025   -18423.883    -1633.539    1.0088118   0.22942298    123.36968    5.8310837 
  256000    287.31106   -18439.247   -4303.7362    1.0088118   0.22922083    131.29791     5.857651 
  258000    301.35595   -18444.377    4312.5693    1.0088118   0.22909067    133.82682    5.8452168 
  260000    288.51949   -18444.002   -1908.3713    1.0088118   0.22897868    134.02688    5.8625844 
  262000    283.44765   -18470.283   -4757.8657    1.0088118   0.22880411    131.78843    5.8081887 
  264000    328.80261   -18430.039   -6489.1894    1.0088118   0.22860338    133.80706    5.7484485 
  266000    272.99539   -18450.311    4173.4785    1.0088118   0.22844406    136.09913    5.7313983 
  268000    277.83072   -18473.682    1586.1325    1.0088118   0.22829812    138.96308    5.6839432 
  270000    283.40138   -18462.204      968.406    1.0088118   0.22820068    141.27545    5.6830657 
  272000    308.59353   -18429.181   -848.61424    1.0088118   0.22814049    145.99911    5.6453937 
  274000    307.87578   -18442.903   -1066.6253    1.0088118   0.22814554    145.66815    5.6131335 
  276000    295.76995   -18431.638   -5895.2559    1.0088118   0.22811299    147.39964    5.5744517 
  278000    293.84525   -18440.035   -3282.8498    1.0088118   0.22808979    147.75576    5.5425858 
  280000    329.01901   -18405.825   -2907.0675    1.0088118   0.22795686    143.41386    5.5334353 
  282000    247.24893   -18464.731    -4158.306    1.0088118   0.22783094    148.11079    5.4873961 
  284000    292.87447   -18447.694    1728.4448    1.0088118   0.22775322    147.43359    5.4950559 
  286000    332.09832   -18420.222    3640.2996    1.0088118   0.22758447    146.52527    5.4760442 
  288000     307.6902   -18431.348    4225.5135    1.0088118   0.22738429    147.34375    5.4431839 
  290000    289.84348   -18430.418   -3865.8693    1.0088118     0.227138    145.64177    5.4343079 
  292000    320.63243   -18426.186   -7443.2742    1.0088118   0.22688473    150.56129    5.4975508 
  294000    282.33394   -18459.138     1705.274    1.0088118   0.22667672    153.91456    5.5452397 
  296000    307.06988   -18428.739    3159.8579    1.0088118   0.22648234     151.5322    5.5125715 
  298000    291.99141   -18438.894    2109.5693    1.0088118   0.22623245    151.09875    5.4643686 
  300000    325.21127    -18409.45   -3926.9272    1.0088118   0.22595792     151.1472    5.4299722 
  302000    296.24582   -18462.279   -2027.7737    1.0088118   0.22577119    157.66022    5.4103126 
  304000    330.10752   -18394.875   -1390.5121    1.0088118   0.22567447    160.61685    5.4295928 
  306000    295.96216   -18428.776   -3491.4951    1.0088118   0.22553639     159.3909     5.394477 
  308000    290.09998   -18425.806   -4645.0485    1.0088118   0.22541615    160.11663    5.4571128 
  310000    289.79805   -18444.309   -4518.5672    1.0088118   0.22527176    160.85052    5.4461667 
  312000    282.84321   -18434.816   -5364.3957    1.0088118   0.22512699    165.67182    5.4200913 
  314000    294.62752   -18456.904   -3750.1746    1.0088118   0.22508328    169.52402    5.4081585 
  316000    298.99618   -18428.046   -1043.7022    1.0088118   0.22502895     167.4263    5.3968821 
  318000    287.75242   -18469.022   -2316.4967    1.0088118   0.22490637    166.63593    5.4261373 
  320000    286.23628   -18452.621   -1911.3369    1.0088118   0.22477681    169.62373    5.3720368 
  322000    302.32659     -18444.1   -1069.8034    1.0088118   0.22464871     171.0014    5.4109671 
  324000    293.24458   -18451.063    3984.0099    1.0088118   0.22457549     173.3699    5.4119662 
  326000    272.55177   -18472.611   -2160.9732    1.0088118   0.22448336    175.80236    5.3818395 
  328000    294.27202   -18445.335    3924.1571    1.0088118   0.22439041    176.44822    5.3747115 
  330000      300.385   -18460.874   -3601.5868    1.0088118   0.22433271     177.6751    5.3531405 
  332000    317.80414   -18439.704   -3049.7841    1.0088118    0.2242304    175.48537    5.3598934 
  334000    296.96097   -18465.299   -1405.0067    1.0088118    0.2240877    174.42672    5.3774148 
  336000    295.92235   -18444.778    1221.8708    1.0088118   0.22395713    180.11697    5.3712592 
  338000    322.50734   -18437.905    5115.3412    1.0088118   0.22386935     181.9979    5.3429977 
  340000    311.27355   -18434.878   -3197.1621    1.0088118   0.22373552    179.62311    5.3783708 
  342000     306.2037   -18437.597    3121.1654    1.0088118   0.22357093    181.64742     5.355411 
  344000    278.18541   -18460.097   -356.15259    1.0088118   0.22346602    186.23929    5.3919652 
  346000    281.61598   -18452.422   -27.044033    1.0088118   0.22341281    188.99325    5.5087941 
  348000    295.10388   -18451.329    3129.2427    1.0088118   0.22329828     182.7399    5.5441185 
  350000    296.16235   -18434.568    1061.0172    1.0088118   0.22313824     185.6393    5.5787023 
  352000    306.49524   -18428.629   -2591.5925    1.0088118   0.22302608    186.64383    5.5850649 
  354000    271.55461    -18467.43    1581.8226    1.0088118   0.22293477    193.82006    5.6578464 
  356000    320.02554   -18427.267    6218.9817    1.0088118   0.22282872    189.65041    5.7122218 
  358000    275.86665    -18454.53   -1681.5585    1.0088118   0.22269873    190.42338    5.7478172 
  360000    291.03222   -18434.778    -970.5899    1.0088118   0.22255578    190.64402    5.7669404 
  362000    290.50266   -18464.057    2625.1278    1.0088118   0.22242299     195.3901    5.7471797 
  364000    306.42879   -18437.144   -920.76371    1.0088118   0.22232158    195.80167    5.7376761 
  366000    314.45408   -18444.563   -3970.3905    1.0088118   0.22221011      196.706    5.7308811 
  368000    314.32806   -18437.078    4816.0218    1.0088118   0.22213339    199.87077    5.7851088 
  370000    301.07309   -18434.323   -932.50007    1.0088118   0.22205053    201.94127    5.7817352 
  372000    317.27033   -18440.668   -1782.2771    1.0088118   0.22201127    206.47129    5.8146117 
  374000     283.5739   -18459.419    372.41972    1.0088118    0.2220157    208.10248    5.7756932 
  376000    311.85132   -18438.695   -5779.8662    1.0088118   0.22202172    209.60248    5.7508095 
  378000    298.42285   -18451.345    702.94682    1.0088118   0.22199963    208.22479    5.8131112 
  380000    312.39347   -18446.615   -4714.3364    1.0088118   0.22196313    209.97944    5.8554757 
  382000     300.5249   -18444.348   -1064.0434    1.0088118   0.22191885    211.18265    5.9141057 
  384000    287.34986   -18444.541   -1965.4501    1.0088118   0.22190935    216.74782    5.8630566 
  386000    317.52671   -18423.579    6382.1387    1.0088118   0.22192009    218.24799    5.8477695 
  388000    309.31564   -18431.999   -4726.0437    1.0088118   0.22196354    224.06852    5.8699026 
  390000    313.49747   -18434.547   -1212.7135    1.0088118   0.22202689     224.6508    5.8511222 
  392000    310.60997   -18423.872   -2339.3082    1.0088118   0.22207395    222.20966    5.8571099 
  394000    268.36999   -18454.518   -2115.2291    1.0088118     0.222116    226.78123    5.8347395 
  396000    270.23074   -18475.954   -8599.5367    1.0088118   0.22215379     226.3738    5.8244093 
  398000    318.93846   -18443.638     5555.753    1.0088118   0.22221608    230.03647     5.836439 
  400000    287.14469   -18440.649   -6221.4176    1.0088118   0.22225062     230.8195    5.8309262 
  402000    326.07155   -18443.049    3306.3249    1.0088118   0.22230367    233.11365    5.7911421 
  404000    317.69297   -18424.121   -9076.9351    1.0088118   0.22234322    232.09468    5.7810454 
  406000     304.5466   -18431.424    234.63442    1.0088118   0.22236834    234.16866    5.7745839 
  408000    283.56966   -18473.598   -4233.1548    1.0088118   0.22237752    230.92463     5.729582 
  410000    280.88966   -18453.825    2676.2919    1.0088118   0.22237554    236.58899    5.6952576 
  412000    305.79182   -18435.201   -2763.8032    1.0088118    0.2223986    239.20822    5.7414556 
  414000    320.37057   -18443.175   -512.14972    1.0088118   0.22241846    237.20784    5.7188093 
  416000     300.0352   -18445.867   -2234.0383    1.0088118   0.22244904    242.85968    5.7394846 
  418000     320.7264   -18453.314    4988.1778    1.0088118   0.22250076    245.03886    5.7305584 
  420000    301.01092   -18440.488    2507.6323    1.0088118   0.22255175    244.69728    5.7070827 
  422000     291.7937   -18475.729    4090.5611    1.0088118   0.22258875    244.88721    5.6998596 
  424000    313.78523   -18451.321   -7259.5878    1.0088118   0.22262784    246.52955    5.7783597 
  426000    279.58279   -18460.286     2247.957    1.0088118   0.22266052     246.3128    5.8372186 
  428000    288.60683   -18480.939   -1424.6174    1.0088118   0.22268919    250.54819    5.9030395 
  430000    286.51308   -18450.262    -801.3829    1.0088118   0.22273397    250.85491    5.8927368 
  432000    288.52941   -18470.305   -523.76587    1.0088118    0.2227912    257.27273    5.8623542 
  434000    307.28873   -18437.492     1013.896    1.0088118    0.2228738    258.86799    5.8838659 
  436000    324.10299   -18438.518   -2275.8375    1.0088118   0.22295942    259.42437    5.8414836 
  438000     264.0119    -18462.07    758.65859    1.0088118   0.22302595    262.01872    5.8211044 
  440000    343.12606   -18406.805   -5974.2942    1.0088118   0.22310611    260.07089    5.8387561 
  442000    241.43377    -18477.47    -4945.272    1.0088118   0.22315912    262.05757    5.8332611 
  444000     298.4582   -18424.868    8546.8011    1.0088118    0.2232058     263.7023     5.856294 
  446000    279.27565   -18459.682   -3097.4989    1.0088118   0.22326975    265.75991    5.8351578 
  448000    301.52677   -18476.385   -1522.8721    1.0088118   0.22335687    271.01713    5.8196307 
  450000    290.56867   -18429.915    6904.1759    1.0088118    0.2234723    273.02739    5.7953748 
  452000    292.29983   -18439.922   -1467.4275    1.0088118   0.22358448    277.41369    5.7837439 
  454000     310.8502   -18407.318     1447.671    1.0088118   0.22371385    279.39979    5.8094462 
  456000    280.26459   -18456.846    275.33158    1.0088118   0.22385184    281.45867    5.8619592 
  458000    301.06739   -18439.072   -651.98777    1.0088118   0.22399478    287.58178    5.8734114 
  460000    301.47108   -18438.087   -1941.1579    1.0088118   0.22417311    291.06303    5.8913856 
  462000    333.56449   -18400.951   -1997.9263    1.0088118   0.22436269    295.07274    5.9252088 
  464000    288.40876   -18446.822    5163.4942    1.0088118   0.22456328     294.3474    5.9742248 
  466000     299.9337   -18450.052   -2298.2491    1.0088118   0.22472271    291.68926    6.0242892 
  468000    295.96027   -18417.642   -29.241254    1.0088118   0.22485623    293.67999     6.019116 
  470000    315.06265   -18426.715   -3422.8574    1.0088118   0.22498228    289.77361    6.0178851 
  472000    302.72746   -18420.511   -356.99037    1.0088118   0.22507446    290.86522    5.9761943 
  474000     292.3258   -18436.043   -524.97723    1.0088118   0.22517217     294.2067    5.9858687 
  476000    305.56867   -18426.427    5558.2009    1.0088118   0.22524546     288.7589    5.9771708 
  478000    283.84002   -18433.759    546.79841    1.0088118   0.22529663    286.50637    5.9703208 
  480000    282.66646   -18441.902    4653.3365    1.0088118   0.22532597    289.27152    5.9652703 
  482000    305.41206   -18431.377    1299.1474    1.0088118   0.22535229    288.88844    5.9987493 
  484000    282.29028   -18442.001   -6264.2753    1.0088118   0.22536693    288.63342    5.9997687 
  486000    315.91083   -18437.078   -2120.4451    1.0088118   0.22540077      295.989    5.9785181 
  488000    295.07391   -18448.134    1818.9097    1.0088118   0.22546229    299.71981    5.9483325 
  490000    306.57801   -18419.432   -5285.9091    1.0088118   0.22553408    304.46878    5.9272973 
  492000    267.08539   -18465.213   -3259.4269    1.0088118   0.22563974    306.38998    5.9407714 
  494000    307.43006   -18447.332    984.12206    1.0088118   0.22573341    307.75501    5.9131872 
  496000    292.19282   -18449.562     4689.936    1.0088118   0.22583654    311.34696    5.8979146 
  498000    305.26976   -18448.937    2562.7692    1.0088118    0.2259384    312.93836    5.9155337 
  500000    290.13304    -18465.96   -7419.4843    1.0088118   0.22603071     309.7881    5.9072911 
  502000    291.63249   -18430.546   -2980.7957    1.0088118   0.22612698    313.85703    5.9428491 
  504000    339.84638   -18428.361    72.750776    1.0088118   0.22621709     316.7287    5.9316715 
  506000    316.78247   -18448.334   -1197.5799    1.0088118   0.22630451    314.18677    5.9153329 
  508000    285.76279   -18441.247   -30.300629    1.0088118   0.22636983    311.03465    5.8978686 
  510000    289.32551   -18447.648   -3944.5833    1.0088118   0.22639998    312.94307    5.8759972 
  512000     321.5373   -18429.154    8468.5689    1.0088118   0.22646932    320.47571    5.8864004 
  514000    303.13624   -18453.102    3725.8574    1.0088118   0.22653731    316.47255    5.8704913 
  516000    306.57619    -18421.31    75.158388    1.0088118   0.22658831    317.46218      5.86592 
  518000     282.2758    -18461.84   -1663.2651    1.0088118   0.22664113    319.34264    5.8805051 
  520000    284.41737   -18480.328   -693.26222    1.0088118   0.22668312    316.53874     5.868243 
  522000    321.29334   -18437.928    5041.0971    1.0088118   0.22669607    319.02098    5.8942529 
  524000    307.08394    -18451.38   -153.69766    1.0088118   0.22672362    319.47691    5.8815362 
  526000    286.16046   -18482.372    -4544.359    1.0088118   0.22674875    319.79419    5.8626948 
  528000    311.69606   -18441.982    -2997.042    1.0088118   0.22676445    318.25854    5.8585696 
  530000    292.02628   -18422.209   -4715.6027    1.0088118   0.22677648    321.28187    5.8851037 
  532000    340.49099   -18398.662   -3487.3931    1.0088118   0.22679884    328.27957    5.8908548 
  534000    302.22419   -18439.189    653.28876    1.0088118   0.22684512    333.55375    5.8730849 
  536000     304.4197   -18415.788   -390.51863    1.0088118   0.22691103    334.75085    5.8813742 
  538000    284.28732   -18454.395   -95.303266    1.0088118   0.22697156    336.26943    5.8859583 
  540000    305.56288   -18425.017    780.37329    1.0088118   0.22704219    335.92209    5.8682165 
  542000    329.85575   -18406.282   -5083.2432    1.0088118   0.22708615    336.56684    5.8787898 
  544000    298.28631   -18424.346   -79.416129    1.0088118    0.2271442    337.58642    5.8735509 
  546000     313.5188   -18460.247    5613.7331    1.0088118   0.22718536    339.69288    5.8832805 
  548000    327.54547   -18428.927    5002.3501    1.0088118   0.22722009    337.07043    5.8882492 
  550000    309.90378   -18447.087   -2778.5803    1.0088118    0.2272407    338.63094    5.9206534 
  552000     295.2451   -18435.466    5583.0453    1.0088118   0.22726968    345.33143    5.9097988 
  554000      304.854   -18459.921   -4005.4198    1.0088118   0.22732106    345.54709    5.9007127 
  556000    306.62683   -18427.569   -2333.7735    1.0088118   0.22737695    347.90909    5.8843512 
  558000    319.10664    -18420.77   -3181.6806    1.0088118   0.22742058    347.96434    5.8660538 
  560000    304.38164   -18423.844    -1410.397    1.0088118    0.2274642    346.82378    5.8565111 
Loop time of 5236.04 on 20 procs for 500000 steps with 222 atoms

Performance: 4.125 ns/day, 5.818 hours/ns, 95.492 timesteps/s
95.9% CPU use with 20 MPI tasks x no OpenMP threads

MPI task timing breakdown:
Section |  min time  |  avg time  |  max time  |%varavg| %total
---------------------------------------------------------------
Pair    | 3526.9     | 3634.8     | 3761.7     |  99.8 | 69.42
Bond    | 0.052649   | 0.064161   | 0.08533    |   2.3 |  0.00
Neigh   | 0.74722    | 0.76815    | 0.79145    |   1.4 |  0.01
Comm    | 1459       | 1586.1     | 1693.5     | 151.1 | 30.29
Output  | 0.19584    | 0.20099    | 0.23334    |   1.7 |  0.00
Modify  | 9.1412     | 9.8387     | 11.583     |  16.0 |  0.19
Other   |            | 4.221      |            |       |  0.08

Nlocal:    11.1 ave 14 max 8 min
Histogram: 1 2 0 2 0 8 4 0 2 1
Nghost:    1039.25 ave 1072 max 1019 min
Histogram: 4 2 1 4 3 3 2 0 0 1
Neighs:    0 ave 0 max 0 min
Histogram: 20 0 0 0 0 0 0 0 0 0
FullNghs:  2741.9 ave 3426 max 1999 min
Histogram: 1 2 0 2 3 5 4 0 2 1

Total # of neighbors = 54838
Ave neighs/atom = 247.018
Ave special neighs/atom = 0
Neighbor list builds = 7930
Dangerous builds = 0
