LAMMPS (16 Mar 2018)
###############################################################################
# MD simulation for NN water
###############################################################################

###############################################################################
# VARIABLES
###############################################################################
clear
# Configuration files
variable cfgFile         string "lmp/restart.data"
# Timesteps
variable numSteps        equal  500000
variable dt              equal  0.5
# NN
variable nnpCutoff       equal  6.36
variable nnpDir          string "nnp-trained"
# Masses
variable mass_H          equal  1.00794
variable mass_O          equal  15.9994

###############################################################################
# GENERAL SETUP
###############################################################################
units real   # NOT METAL!!!
boundary p p p
atom_style full
read_restart ${cfgFile}
read_restart lmp/restart.data
WARNING: Restart file used different # of processors (../read_restart.cpp:723)
  orthogonal box = (-6.63342 -6.62892 -6.60542) to (6.36142 6.36592 6.38942)
  2 by 2 by 5 MPI processor grid
  222 atoms
  0 = max # of 1-2 neighbors
  0 = max # of 1-3 neighbors
  0 = max # of 1-4 neighbors
  1 = max # of special neighbors
#replicate 2 2 2
mass 1 ${mass_H}
mass 1 1.00794
mass 2 ${mass_O}
mass 2 15.9994
timestep ${dt}
timestep 0.5
thermo 50

###############################################################################
# NN
###############################################################################
pair_style nnp dir ${nnpDir} showew no showewsum 0 resetew yes maxew 5000 cflength 1.8897261328 cfenergy 0.0015936 # kcal/mol -> Hartree !!!
pair_style nnp dir nnp-trained showew no showewsum 0 resetew yes maxew 5000 cflength 1.8897261328 cfenergy 0.0015936 
pair_coeff * * ${nnpCutoff}
pair_coeff * * 6.36

###############################################################################
# SETTING
###############################################################################

dump           1 all atom 1000 results/dump-nnp.lammpstrj
dump           xyz all xyz 1000 results/dump.xyz
dump_modify    xyz sort id element H O

variable  dens equal (mass(all)/vol*1.66054) # gr/cm3

###############################################################################
# SIMULATION
###############################################################################

variable T      equal 300
variable P      equal 1.0
velocity   	    all create 300 98445 dist gaussian mom yes rot yes

############################ stress-tensor

variable    vp equal lx*ly*lz
compute     Tc all temp

#compute     peratom all stress/atom Tc
#compute     sxx all   reduce sum c_peratom[1]
#compute     syy all   reduce sum c_peratom[2]
#compute     szz all   reduce sum c_peratom[3]
#compute     sxy all   reduce sum c_peratom[4]
#compute     sxz all   reduce sum c_peratom[5]
#compute     syz all   reduce sum c_peratom[6]

variable    pxy equal   pxy #-c_sxy/(v_vp)
variable    pxz equal   pxz #-c_sxz/(v_vp)
variable    pyz equal   pyz #-c_syz/(v_vp)

############################

thermo_style    custom step temp etotal press lx ly lz v_dens

fix        	rlx all nvt temp $T $T 10 #iso $P $P 1000
fix        	rlx all nvt temp 300 $T 10 
fix        	rlx all nvt temp 300 300 10 
Resetting global fix info from restart file:
  fix style: nvt, fix ID: rlx
run 			  100000

*******************************************************************************

   NNP LIBRARY v2.0.0
   ------------------

Git branch  : 
Git revision:  ()

Number of OpenMP threads: 1
*******************************************************************************

*** SETUP: SETTINGS FILE ******************************************************

Settings file name: nnp-trained/input.nn
Read 175 lines.
Found 102 lines with keywords.
*******************************************************************************

*** SETUP: NORMALIZATION ******************************************************

Data set normalization is used.
Mean energy per atom     :  -2.5521343547039809E+01
Conversion factor energy :   2.4265748255366972E+02
Conversion factor length :   5.8038448995319847E+00
*******************************************************************************

*** SETUP: ELEMENT MAP ********************************************************

Number of element strings found: 2
Element  0:  H (  1)
Element  1:  O (  8)
*******************************************************************************

*** SETUP: ELEMENTS ***********************************************************

Number of elements is consistent: 2
Atomic energy offsets per element:
Element  0:   0.00000000E+00
Element  1:   0.00000000E+00
Energy offsets are automatically subtracted from reference energies.
*******************************************************************************

*** SETUP: CUTOFF FUNCTIONS ***************************************************

Parameter alpha for inner cutoff: 0.000000
Inner cutoff = Symmetry function cutoff * alpha
Equal cutoff function type for all symmetry functions:
CutoffFunction::CT_TANHU (2)
f(r) = tanh^3(1 - r/rc)
*******************************************************************************

*** SETUP: SYMMETRY FUNCTIONS *************************************************

Abbreviations:
--------------
ind .... Symmetry function index.
ec ..... Central atom element.
ty ..... Symmetry function type.
e1 ..... Neighbor 1 element.
e2 ..... Neighbor 2 element.
eta .... Gaussian width eta.
rs ..... Shift distance of Gaussian.
la ..... Angle prefactor lambda.
zeta ... Angle term exponent zeta.
rc ..... Cutoff radius.
ct ..... Cutoff type.
ca ..... Cutoff alpha.
ln ..... Line number in settings file.

Short range atomic symmetry functions element  H :
-------------------------------------------------------------------------------
 ind ec ty e1 e2       eta        rs la zeta        rc ct   ca    ln
-------------------------------------------------------------------------------
   1  H  2  H    1.000E-03 0.000E+00         1.200E+01  2 0.00   106
   2  H  2  O    1.000E-03 0.000E+00         1.200E+01  2 0.00   116
   3  H  2  H    1.000E-02 0.000E+00         1.200E+01  2 0.00   107
   4  H  2  O    1.000E-02 0.000E+00         1.200E+01  2 0.00   117
   5  H  2  H    3.000E-02 0.000E+00         1.200E+01  2 0.00   108
   6  H  2  O    3.000E-02 0.000E+00         1.200E+01  2 0.00   118
   7  H  2  H    6.000E-02 0.000E+00         1.200E+01  2 0.00   109
   8  H  2  O    6.000E-02 0.000E+00         1.200E+01  2 0.00   119
   9  H  2  O    1.500E-01 9.000E-01         1.200E+01  2 0.00   120
  10  H  2  H    1.500E-01 1.900E+00         1.200E+01  2 0.00   110
  11  H  2  O    3.000E-01 9.000E-01         1.200E+01  2 0.00   121
  12  H  2  H    3.000E-01 1.900E+00         1.200E+01  2 0.00   111
  13  H  2  O    6.000E-01 9.000E-01         1.200E+01  2 0.00   122
  14  H  2  H    6.000E-01 1.900E+00         1.200E+01  2 0.00   112
  15  H  2  O    1.500E+00 9.000E-01         1.200E+01  2 0.00   123
  16  H  2  H    1.500E+00 1.900E+00         1.200E+01  2 0.00   113
  17  H  3  O  O 1.000E-03 0.000E+00 -1  4.0 1.200E+01  2 0.00   170
  18  H  3  O  O 1.000E-03 0.000E+00  1  4.0 1.200E+01  2 0.00   169
  19  H  3  H  O 1.000E-02 0.000E+00 -1  4.0 1.200E+01  2 0.00   160
  20  H  3  H  O 1.000E-02 0.000E+00  1  4.0 1.200E+01  2 0.00   158
  21  H  3  H  O 3.000E-02 0.000E+00 -1  1.0 1.200E+01  2 0.00   155
  22  H  3  O  O 3.000E-02 0.000E+00 -1  1.0 1.200E+01  2 0.00   168
  23  H  3  H  O 3.000E-02 0.000E+00  1  1.0 1.200E+01  2 0.00   153
  24  H  3  O  O 3.000E-02 0.000E+00  1  1.0 1.200E+01  2 0.00   167
  25  H  3  H  O 7.000E-02 0.000E+00 -1  1.0 1.200E+01  2 0.00   150
  26  H  3  H  O 7.000E-02 0.000E+00  1  1.0 1.200E+01  2 0.00   148
  27  H  3  H  O 2.000E-01 0.000E+00  1  1.0 1.200E+01  2 0.00   145
-------------------------------------------------------------------------------
Short range atomic symmetry functions element  O :
-------------------------------------------------------------------------------
 ind ec ty e1 e2       eta        rs la zeta        rc ct   ca    ln
-------------------------------------------------------------------------------
   1  O  2  H    1.000E-03 0.000E+00         1.200E+01  2 0.00   125
   2  O  2  O    1.000E-03 0.000E+00         1.200E+01  2 0.00   135
   3  O  2  H    1.000E-02 0.000E+00         1.200E+01  2 0.00   126
   4  O  2  O    1.000E-02 0.000E+00         1.200E+01  2 0.00   136
   5  O  2  H    3.000E-02 0.000E+00         1.200E+01  2 0.00   127
   6  O  2  O    3.000E-02 0.000E+00         1.200E+01  2 0.00   137
   7  O  2  H    6.000E-02 0.000E+00         1.200E+01  2 0.00   128
   8  O  2  O    6.000E-02 0.000E+00         1.200E+01  2 0.00   138
   9  O  2  H    1.500E-01 9.000E-01         1.200E+01  2 0.00   129
  10  O  2  O    1.500E-01 4.000E+00         1.200E+01  2 0.00   139
  11  O  2  H    3.000E-01 9.000E-01         1.200E+01  2 0.00   130
  12  O  2  O    3.000E-01 4.000E+00         1.200E+01  2 0.00   140
  13  O  2  H    6.000E-01 9.000E-01         1.200E+01  2 0.00   131
  14  O  2  O    6.000E-01 4.000E+00         1.200E+01  2 0.00   141
  15  O  2  H    1.500E+00 9.000E-01         1.200E+01  2 0.00   132
  16  O  2  O    1.500E+00 4.000E+00         1.200E+01  2 0.00   142
  17  O  3  H  O 1.000E-03 0.000E+00 -1  4.0 1.200E+01  2 0.00   165
  18  O  3  O  O 1.000E-03 0.000E+00 -1  4.0 1.200E+01  2 0.00   175
  19  O  3  H  O 1.000E-03 0.000E+00  1  4.0 1.200E+01  2 0.00   164
  20  O  3  O  O 1.000E-03 0.000E+00  1  4.0 1.200E+01  2 0.00   174
  21  O  3  H  H 1.000E-02 0.000E+00 -1  4.0 1.200E+01  2 0.00   159
  22  O  3  H  H 1.000E-02 0.000E+00  1  4.0 1.200E+01  2 0.00   157
  23  O  3  H  H 3.000E-02 0.000E+00 -1  1.0 1.200E+01  2 0.00   154
  24  O  3  H  O 3.000E-02 0.000E+00 -1  1.0 1.200E+01  2 0.00   163
  25  O  3  O  O 3.000E-02 0.000E+00 -1  1.0 1.200E+01  2 0.00   173
  26  O  3  H  H 3.000E-02 0.000E+00  1  1.0 1.200E+01  2 0.00   152
  27  O  3  H  O 3.000E-02 0.000E+00  1  1.0 1.200E+01  2 0.00   162
  28  O  3  O  O 3.000E-02 0.000E+00  1  1.0 1.200E+01  2 0.00   172
  29  O  3  H  H 7.000E-02 0.000E+00 -1  1.0 1.200E+01  2 0.00   149
  30  O  3  H  H 7.000E-02 0.000E+00  1  1.0 1.200E+01  2 0.00   147
-------------------------------------------------------------------------------
Minimum cutoff radius for element  H: 12.000000
Minimum cutoff radius for element  O: 12.000000
Maximum cutoff radius (global)      : 12.000000
*******************************************************************************

*** SETUP: SYMMETRY FUNCTION GROUPS *******************************************

Abbreviations:
--------------
ind .... Symmetry function group index.
ec ..... Central atom element.
ty ..... Symmetry function type.
e1 ..... Neighbor 1 element.
e2 ..... Neighbor 2 element.
eta .... Gaussian width eta.
rs ..... Shift distance of Gaussian.
la ..... Angle prefactor lambda.
zeta ... Angle term exponent zeta.
rc ..... Cutoff radius.
ct ..... Cutoff type.
ca ..... Cutoff alpha.
ln ..... Line number in settings file.
mi ..... Member index.
sfi .... Symmetry function index.
e ...... Recalculate exponential term.

Short range atomic symmetry function groups element  H :
-------------------------------------------------------------------------------
 ind ec ty e1 e2       eta        rs la zeta        rc ct   ca    ln   mi  sfi e
-------------------------------------------------------------------------------
   1  H  2  H            *         *         1.200E+01  2 0.00     *    *    *  
   -  -  -  -    1.000E-03 0.000E+00                 -  -    -   105    1    1  
   -  -  -  -    1.000E-02 0.000E+00                 -  -    -   106    2    3  
   -  -  -  -    3.000E-02 0.000E+00                 -  -    -   107    3    5  
   -  -  -  -    6.000E-02 0.000E+00                 -  -    -   108    4    7  
   -  -  -  -    1.500E-01 1.900E+00                 -  -    -   109    5   10  
   -  -  -  -    3.000E-01 1.900E+00                 -  -    -   110    6   12  
   -  -  -  -    6.000E-01 1.900E+00                 -  -    -   111    7   14  
   -  -  -  -    1.500E+00 1.900E+00                 -  -    -   112    8   16  
   2  H  2  O            *         *         1.200E+01  2 0.00     *    *    *  
   -  -  -  -    1.000E-03 0.000E+00                 -  -    -   115    1    2  
   -  -  -  -    1.000E-02 0.000E+00                 -  -    -   116    2    4  
   -  -  -  -    3.000E-02 0.000E+00                 -  -    -   117    3    6  
   -  -  -  -    6.000E-02 0.000E+00                 -  -    -   118    4    8  
   -  -  -  -    1.500E-01 9.000E-01                 -  -    -   119    5    9  
   -  -  -  -    3.000E-01 9.000E-01                 -  -    -   120    6   11  
   -  -  -  -    6.000E-01 9.000E-01                 -  -    -   121    7   13  
   -  -  -  -    1.500E+00 9.000E-01                 -  -    -   122    8   15  
   3  H  3  H  O         *         *  *    * 1.200E+01  2 0.00     *    *    * *
   -  -  -  -  - 1.000E-02 0.000E+00 -1  4.0         -  -    -   159    1   19 1
   -  -  -  -  - 1.000E-02 0.000E+00  1  4.0         -  -    -   157    2   20 0
   -  -  -  -  - 3.000E-02 0.000E+00 -1  1.0         -  -    -   154    3   21 1
   -  -  -  -  - 3.000E-02 0.000E+00  1  1.0         -  -    -   152    4   23 0
   -  -  -  -  - 7.000E-02 0.000E+00 -1  1.0         -  -    -   149    5   25 1
   -  -  -  -  - 7.000E-02 0.000E+00  1  1.0         -  -    -   147    6   26 0
   -  -  -  -  - 2.000E-01 0.000E+00  1  1.0         -  -    -   144    7   27 1
   4  H  3  O  O         *         *  *    * 1.200E+01  2 0.00     *    *    * *
   -  -  -  -  - 1.000E-03 0.000E+00 -1  4.0         -  -    -   169    1   17 1
   -  -  -  -  - 1.000E-03 0.000E+00  1  4.0         -  -    -   168    2   18 0
   -  -  -  -  - 3.000E-02 0.000E+00 -1  1.0         -  -    -   167    3   22 1
   -  -  -  -  - 3.000E-02 0.000E+00  1  1.0         -  -    -   166    4   24 0
-------------------------------------------------------------------------------
Short range atomic symmetry function groups element  O :
-------------------------------------------------------------------------------
 ind ec ty e1 e2       eta        rs la zeta        rc ct   ca    ln   mi  sfi e
-------------------------------------------------------------------------------
   1  O  2  H            *         *         1.200E+01  2 0.00     *    *    *  
   -  -  -  -    1.000E-03 0.000E+00                 -  -    -   124    1    1  
   -  -  -  -    1.000E-02 0.000E+00                 -  -    -   125    2    3  
   -  -  -  -    3.000E-02 0.000E+00                 -  -    -   126    3    5  
   -  -  -  -    6.000E-02 0.000E+00                 -  -    -   127    4    7  
   -  -  -  -    1.500E-01 9.000E-01                 -  -    -   128    5    9  
   -  -  -  -    3.000E-01 9.000E-01                 -  -    -   129    6   11  
   -  -  -  -    6.000E-01 9.000E-01                 -  -    -   130    7   13  
   -  -  -  -    1.500E+00 9.000E-01                 -  -    -   131    8   15  
   2  O  2  O            *         *         1.200E+01  2 0.00     *    *    *  
   -  -  -  -    1.000E-03 0.000E+00                 -  -    -   134    1    2  
   -  -  -  -    1.000E-02 0.000E+00                 -  -    -   135    2    4  
   -  -  -  -    3.000E-02 0.000E+00                 -  -    -   136    3    6  
   -  -  -  -    6.000E-02 0.000E+00                 -  -    -   137    4    8  
   -  -  -  -    1.500E-01 4.000E+00                 -  -    -   138    5   10  
   -  -  -  -    3.000E-01 4.000E+00                 -  -    -   139    6   12  
   -  -  -  -    6.000E-01 4.000E+00                 -  -    -   140    7   14  
   -  -  -  -    1.500E+00 4.000E+00                 -  -    -   141    8   16  
   3  O  3  H  H         *         *  *    * 1.200E+01  2 0.00     *    *    * *
   -  -  -  -  - 1.000E-02 0.000E+00 -1  4.0         -  -    -   158    1   21 1
   -  -  -  -  - 1.000E-02 0.000E+00  1  4.0         -  -    -   156    2   22 0
   -  -  -  -  - 3.000E-02 0.000E+00 -1  1.0         -  -    -   153    3   23 1
   -  -  -  -  - 3.000E-02 0.000E+00  1  1.0         -  -    -   151    4   26 0
   -  -  -  -  - 7.000E-02 0.000E+00 -1  1.0         -  -    -   148    5   29 1
   -  -  -  -  - 7.000E-02 0.000E+00  1  1.0         -  -    -   146    6   30 0
   4  O  3  H  O         *         *  *    * 1.200E+01  2 0.00     *    *    * *
   -  -  -  -  - 1.000E-03 0.000E+00 -1  4.0         -  -    -   164    1   17 1
   -  -  -  -  - 1.000E-03 0.000E+00  1  4.0         -  -    -   163    2   19 0
   -  -  -  -  - 3.000E-02 0.000E+00 -1  1.0         -  -    -   162    3   24 1
   -  -  -  -  - 3.000E-02 0.000E+00  1  1.0         -  -    -   161    4   27 0
   5  O  3  O  O         *         *  *    * 1.200E+01  2 0.00     *    *    * *
   -  -  -  -  - 1.000E-03 0.000E+00 -1  4.0         -  -    -   174    1   18 1
   -  -  -  -  - 1.000E-03 0.000E+00  1  4.0         -  -    -   173    2   20 0
   -  -  -  -  - 3.000E-02 0.000E+00 -1  1.0         -  -    -   172    3   25 1
   -  -  -  -  - 3.000E-02 0.000E+00  1  1.0         -  -    -   171    4   28 0
-------------------------------------------------------------------------------
*******************************************************************************

*** SETUP: NEURAL NETWORKS ****************************************************

Normalize neurons (all elements): 0
-------------------------------------------------------------------------------
Atomic short range NN for element  H :
Number of weights    :   1325
Number of biases     :     51
Number of connections:   1376
Architecture       27   25   25    1
-------------------------------------------------------------------------------
   1   G   t   t   l
   2   G   t   t
   3   G   t   t
   4   G   t   t
   5   G   t   t
   6   G   t   t
   7   G   t   t
   8   G   t   t
   9   G   t   t
  10   G   t   t
  11   G   t   t
  12   G   t   t
  13   G   t   t
  14   G   t   t
  15   G   t   t
  16   G   t   t
  17   G   t   t
  18   G   t   t
  19   G   t   t
  20   G   t   t
  21   G   t   t
  22   G   t   t
  23   G   t   t
  24   G   t   t
  25   G   t   t
  26   G
  27   G
-------------------------------------------------------------------------------
Atomic short range NN for element  O :
Number of weights    :   1400
Number of biases     :     51
Number of connections:   1451
Architecture       30   25   25    1
-------------------------------------------------------------------------------
   1   G   t   t   l
   2   G   t   t
   3   G   t   t
   4   G   t   t
   5   G   t   t
   6   G   t   t
   7   G   t   t
   8   G   t   t
   9   G   t   t
  10   G   t   t
  11   G   t   t
  12   G   t   t
  13   G   t   t
  14   G   t   t
  15   G   t   t
  16   G   t   t
  17   G   t   t
  18   G   t   t
  19   G   t   t
  20   G   t   t
  21   G   t   t
  22   G   t   t
  23   G   t   t
  24   G   t   t
  25   G   t   t
  26   G
  27   G
  28   G
  29   G
  30   G
-------------------------------------------------------------------------------
*******************************************************************************

*** SETUP: SYMMETRY FUNCTION SCALING ******************************************

Equal scaling type for all symmetry functions:
Scaling type::ST_SCALECENTER (3)
Gs = Smin + (Smax - Smin) * (G - Gmean) / (Gmax - Gmin)
Smin = 0.000000
Smax = 1.000000
Symmetry function scaling statistics from file: nnp-trained/scaling.data
-------------------------------------------------------------------------------

Abbreviations:
--------------
ind ..... Symmetry function index.
min ..... Minimum symmetry function value.
max ..... Maximum symmetry function value.
mean .... Mean symmetry function value.
sigma ... Standard deviation of symmetry function values.
sf ...... Scaling factor for derivatives.
Smin .... Desired minimum scaled symmetry function value.
Smax .... Desired maximum scaled symmetry function value.
t ....... Scaling type.

Scaling data for symmetry functions element  H :
-------------------------------------------------------------------------------
 ind       min       max      mean     sigma        sf  Smin  Smax t
-------------------------------------------------------------------------------
   1  1.09E+00  9.62E+00  2.27E+00  6.79E-01  1.17E-01  0.00  1.00 3
   2  7.33E-01  5.00E+00  1.33E+00  3.39E-01  2.34E-01  0.00  1.00 3
   3  7.60E-01  7.14E+00  1.65E+00  5.08E-01  1.57E-01  0.00  1.00 3
   4  5.48E-01  3.77E+00  1.02E+00  2.54E-01  3.11E-01  0.00  1.00 3
   5  4.01E-01  4.15E+00  9.09E-01  2.98E-01  2.67E-01  0.00  1.00 3
   6  3.62E-01  2.27E+00  6.49E-01  1.48E-01  5.25E-01  0.00  1.00 3
   7  1.89E-01  2.23E+00  4.57E-01  1.60E-01  4.90E-01  0.00  1.00 3
   8  2.67E-01  1.32E+00  4.24E-01  8.05E-02  9.49E-01  0.00  1.00 3
   9  2.45E-01  9.48E-01  3.62E-01  5.30E-02  1.42E+00  0.00  1.00 3
  10  2.22E-01  2.76E+00  5.39E-01  2.01E-01  3.94E-01  0.00  1.00 3
  11  1.47E-01  5.56E-01  2.68E-01  2.62E-02  2.45E+00  0.00  1.00 3
  12  9.91E-02  1.73E+00  2.96E-01  1.16E-01  6.14E-01  0.00  1.00 3
  13  6.51E-02  3.45E-01  1.85E-01  1.97E-02  3.57E+00  0.00  1.00 3
  14  3.17E-02  9.13E-01  1.50E-01  5.35E-02  1.13E+00  0.00  1.00 3
  15  2.92E-03  2.65E-01  7.65E-02  1.88E-02  3.82E+00  0.00  1.00 3
  16  3.21E-04  2.87E-01  4.58E-02  2.33E-02  3.49E+00  0.00  1.00 3
  17  2.47E-04  1.38E-01  1.77E-02  9.75E-03  7.23E+00  0.00  1.00 3
  18  5.10E-03  5.83E-01  2.39E-02  3.78E-02  1.73E+00  0.00  1.00 3
  19  3.23E-04  2.16E-01  1.71E-02  1.40E-02  4.63E+00  0.00  1.00 3
  20  4.96E-02  1.69E+00  1.45E-01  1.10E-01  6.11E-01  0.00  1.00 3
  21  3.41E-03  3.16E-01  1.84E-02  2.01E-02  3.20E+00  0.00  1.00 3
  22  1.31E-04  1.03E-01  6.37E-03  6.61E-03  9.76E+00  0.00  1.00 3
  23  3.38E-02  9.16E-01  8.13E-02  5.79E-02  1.13E+00  0.00  1.00 3
  24  4.17E-04  1.58E-01  4.66E-03  9.86E-03  6.35E+00  0.00  1.00 3
  25  7.35E-04  5.92E-02  3.70E-03  3.31E-03  1.71E+01  0.00  1.00 3
  26  8.98E-03  1.94E-01  2.41E-02  1.10E-02  5.40E+00  0.00  1.00 3
  27  2.12E-04  8.78E-03  2.06E-03  5.88E-04  1.17E+02  0.00  1.00 3
-------------------------------------------------------------------------------
Scaling data for symmetry functions element  O :
-------------------------------------------------------------------------------
 ind       min       max      mean     sigma        sf  Smin  Smax t
-------------------------------------------------------------------------------
   1  1.51E+00  1.00E+01  2.65E+00  6.78E-01  1.18E-01  0.00  1.00 3
   2  4.44E-01  4.62E+00  9.66E-01  3.37E-01  2.39E-01  0.00  1.00 3
   3  1.19E+00  7.53E+00  2.03E+00  5.06E-01  1.58E-01  0.00  1.00 3
   4  2.76E-01  3.39E+00  6.59E-01  2.50E-01  3.21E-01  0.00  1.00 3
   5  8.06E-01  4.54E+00  1.30E+00  2.94E-01  2.68E-01  0.00  1.00 3
   6  1.05E-01  1.89E+00  3.07E-01  1.42E-01  5.60E-01  0.00  1.00 3
   7  5.69E-01  2.62E+00  8.48E-01  1.57E-01  4.89E-01  0.00  1.00 3
   8  2.33E-02  9.36E-01  1.11E-01  6.98E-02  1.10E+00  0.00  1.00 3
   9  5.14E-01  1.85E+00  7.25E-01  9.80E-02  7.46E-01  0.00  1.00 3
  10  1.11E-01  2.91E+00  4.75E-01  2.34E-01  3.57E-01  0.00  1.00 3
  11  3.53E-01  1.07E+00  5.35E-01  4.52E-02  1.39E+00  0.00  1.00 3
  12  3.04E-02  2.53E+00  3.17E-01  2.10E-01  4.00E-01  0.00  1.00 3
  13  1.60E-01  6.63E-01  3.70E-01  3.08E-02  1.99E+00  0.00  1.00 3
  14  2.78E-03  2.30E+00  1.77E-01  1.86E-01  4.35E-01  0.00  1.00 3
  15  9.56E-03  3.91E-01  1.53E-01  2.79E-02  2.62E+00  0.00  1.00 3
  16  3.75E-06  2.04E+00  5.41E-02  1.43E-01  4.91E-01  0.00  1.00 3
  17  2.47E-03  3.43E-01  1.67E-02  2.19E-02  2.93E+00  0.00  1.00 3
  18  1.74E-05  5.63E-02  9.55E-04  3.36E-03  1.78E+01  0.00  1.00 3
  19  5.48E-02  3.02E+00  2.04E-01  2.01E-01  3.37E-01  0.00  1.00 3
  20  1.38E-03  4.99E-01  1.28E-02  3.18E-02  2.01E+00  0.00  1.00 3
  21  6.69E-03  2.67E-01  3.09E-02  1.71E-02  3.84E+00  0.00  1.00 3
  22  1.70E-02  1.42E+00  7.63E-02  9.29E-02  7.14E-01  0.00  1.00 3
  23  1.98E-02  4.08E-01  4.88E-02  2.55E-02  2.58E+00  0.00  1.00 3
  24  5.28E-04  2.33E-01  7.21E-03  1.45E-02  4.30E+00  0.00  1.00 3
  25  1.11E-05  3.53E-02  4.25E-04  2.05E-03  2.83E+01  0.00  1.00 3
  26  1.60E-02  8.22E-01  5.08E-02  5.28E-02  1.24E+00  0.00  1.00 3
  27  3.99E-03  7.86E-01  3.69E-02  5.05E-02  1.28E+00  0.00  1.00 3
  28  4.05E-05  9.84E-02  1.21E-03  5.79E-03  1.02E+01  0.00  1.00 3
  29  6.04E-03  9.93E-02  1.62E-02  5.52E-03  1.07E+01  0.00  1.00 3
  30  2.96E-03  1.55E-01  1.16E-02  8.94E-03  6.59E+00  0.00  1.00 3
-------------------------------------------------------------------------------
*******************************************************************************

*** SETUP: SYMMETRY FUNCTION STATISTICS ***************************************

Equal symmetry function statistics for all elements.
Collect min/max/mean/sigma                        : 0
Collect extrapolation warnings                    : 1
Write extrapolation warnings immediately to stderr: 0
Halt on any extrapolation warning                 : 0
*******************************************************************************

*** SETUP: NEURAL NETWORK WEIGHTS *********************************************

Weight file name format: nnp-trained/weights.%03d.data
Weight file for element  H: nnp-trained/weights.001.data
Weight file for element  O: nnp-trained/weights.008.data
*******************************************************************************

*** SETUP: LAMMPS INTERFACE ***************************************************

Individual extrapolation warnings will not be shown.
Extrapolation warning summary will not be shown.
The simulation will be stopped when 5000 extrapolation warnings are exceeded.
Extrapolation warning counter is reset every time step.
-------------------------------------------------------------------------------
CAUTION: If the LAMMPS unit system differs from the one used
         during NN training, appropriate conversion factors
         must be provided (see keywords cflength and cfenergy).

Length unit conversion factor:   1.8897261327999999E+00
Energy unit conversion factor:   1.5935999999999999E-03

Checking consistency of cutoff radii (in LAMMPS units):
LAMMPS Cutoff (via pair_coeff)  :   6.360E+00
Maximum symmetry function cutoff:   6.350E+00
Cutoff radii are consistent.
-------------------------------------------------------------------------------
CAUTION: Please ensure that this mapping between LAMMPS
         atom types and NNP elements is consistent:

---------------------------
LAMMPS type  |  NNP element
---------------------------
          1 <->  H (  1)
          2 <->  O (  8)
---------------------------

NNP setup for LAMMPS completed.
*******************************************************************************
All restart file global fix info was re-assigned
Neighbor list info ...
  update every 1 steps, delay 10 steps, check yes
  max neighbors/atom: 2000, page size: 100000
  master list distance cutoff = 8.36
  ghost atom cutoff = 8.36
  binsize = 4.18, bins = 4 4 4
  1 neighbor lists, perpetual/occasional/extra = 1 0 0
  (1) pair nnp, perpetual
      attributes: full, newton on
      pair build: full/bin
      stencil: full/bin/3d
      bin: standard
Per MPI rank memory allocation (min/avg/max) = 7.701 | 7.765 | 7.954 Mbytes
Step Temp TotEng Press Lx Ly Lz v_dens 
   10000          300   -3555210.4     13451.12    12.994831    12.994831    12.994831    1.0088118 
   10050    282.75518     -3555282    6675.8596    12.994831    12.994831    12.994831    1.0088118 
   10100    284.03957   -3555315.3     6800.591    12.994831    12.994831    12.994831    1.0088118 
   10150    308.94356   -3555295.5    10478.962    12.994831    12.994831    12.994831    1.0088118 
   10200    268.94803   -3555310.7     5212.763    12.994831    12.994831    12.994831    1.0088118 
   10250    303.88781     -3555319    6551.8801    12.994831    12.994831    12.994831    1.0088118 
   10300    299.19373   -3555314.4     5267.063    12.994831    12.994831    12.994831    1.0088118 
   10350    302.68496   -3555313.2    1529.3487    12.994831    12.994831    12.994831    1.0088118 
   10400     276.5185     -3555324    6811.2595    12.994831    12.994831    12.994831    1.0088118 
   10450    307.08149     -3555312   -474.77769    12.994831    12.994831    12.994831    1.0088118 
   10500    282.20282   -3555320.2    7693.5989    12.994831    12.994831    12.994831    1.0088118 
   10550    326.45828   -3555313.9     1169.415    12.994831    12.994831    12.994831    1.0088118 
   10600    309.01574   -3555305.1    3083.5094    12.994831    12.994831    12.994831    1.0088118 
   10650    280.57884   -3555311.1    2611.4885    12.994831    12.994831    12.994831    1.0088118 
   10700    295.78358   -3555317.6    9836.6032    12.994831    12.994831    12.994831    1.0088118 
   10750    287.87624     -3555313    304.38383    12.994831    12.994831    12.994831    1.0088118 
   10800     293.9287   -3555310.9    7720.9859    12.994831    12.994831    12.994831    1.0088118 
   10850    298.46929   -3555291.1   -316.07556    12.994831    12.994831    12.994831    1.0088118 
   10900     317.7382   -3555297.8    7294.8782    12.994831    12.994831    12.994831    1.0088118 
   10950    312.33486   -3555293.8   -2198.9364    12.994831    12.994831    12.994831    1.0088118 
   11000    277.52416   -3555334.7    6579.5965    12.994831    12.994831    12.994831    1.0088118 
   11050    304.41673   -3555300.1    2446.1514    12.994831    12.994831    12.994831    1.0088118 
   11100    303.70058   -3555326.6   -946.08701    12.994831    12.994831    12.994831    1.0088118 
   11150     281.5194   -3555319.3    6947.1965    12.994831    12.994831    12.994831    1.0088118 
   11200     293.1922   -3555313.3    1016.4567    12.994831    12.994831    12.994831    1.0088118 
   11250    313.28298   -3555316.1    3833.0383    12.994831    12.994831    12.994831    1.0088118 
   11300    322.02123   -3555309.1    2923.6588    12.994831    12.994831    12.994831    1.0088118 
   11350    280.30531   -3555320.4    911.05068    12.994831    12.994831    12.994831    1.0088118 
   11400    297.59107   -3555322.4    8859.4198    12.994831    12.994831    12.994831    1.0088118 
   11450    270.17127   -3555307.7   -2313.8567    12.994831    12.994831    12.994831    1.0088118 
   11500    310.12251   -3555292.1     8692.607    12.994831    12.994831    12.994831    1.0088118 
   11550    301.63361   -3555297.1   -3744.8429    12.994831    12.994831    12.994831    1.0088118 
   11600    304.17131   -3555279.9    5795.3258    12.994831    12.994831    12.994831    1.0088118 
   11650    307.17326   -3555307.9    1824.5699    12.994831    12.994831    12.994831    1.0088118 
   11700    305.37616     -3555294     2977.773    12.994831    12.994831    12.994831    1.0088118 
   11750    290.64603   -3555318.4    1256.4418    12.994831    12.994831    12.994831    1.0088118 
   11800    304.36888   -3555297.1    565.93449    12.994831    12.994831    12.994831    1.0088118 
   11850    290.05213   -3555329.8    5812.8849    12.994831    12.994831    12.994831    1.0088118 
   11900    306.31987   -3555293.5    2118.9497    12.994831    12.994831    12.994831    1.0088118 
   11950    314.77406   -3555312.3     2953.928    12.994831    12.994831    12.994831    1.0088118 
   12000    286.69151   -3555321.4    333.25999    12.994831    12.994831    12.994831    1.0088118 
   12050    325.21066   -3555298.1    4963.4473    12.994831    12.994831    12.994831    1.0088118 
   12100      277.435   -3555331.7   -281.14995    12.994831    12.994831    12.994831    1.0088118 
   12150    331.92474   -3555286.8    7324.4929    12.994831    12.994831    12.994831    1.0088118 
   12200     279.6939   -3555320.9    1320.4686    12.994831    12.994831    12.994831    1.0088118 
   12250    348.38496   -3555283.3    6771.6212    12.994831    12.994831    12.994831    1.0088118 
   12300    299.65811   -3555309.8   -2562.9019    12.994831    12.994831    12.994831    1.0088118 
   12350    307.08849   -3555311.3    7082.4181    12.994831    12.994831    12.994831    1.0088118 
   12400    304.97166   -3555316.5    5627.5444    12.994831    12.994831    12.994831    1.0088118 
   12450    313.44393   -3555300.8   -578.14106    12.994831    12.994831    12.994831    1.0088118 
   12500    286.42787   -3555331.3   -511.22396    12.994831    12.994831    12.994831    1.0088118 
   12550    311.29966   -3555322.3    4099.8744    12.994831    12.994831    12.994831    1.0088118 
   12600     262.9125   -3555336.3    4646.5562    12.994831    12.994831    12.994831    1.0088118 
   12650    294.05976   -3555319.7    4425.4294    12.994831    12.994831    12.994831    1.0088118 
   12700    325.29099   -3555292.5   -1005.6363    12.994831    12.994831    12.994831    1.0088118 
   12750    281.86944   -3555320.9    4525.9166    12.994831    12.994831    12.994831    1.0088118 
   12800    301.16527   -3555309.1    3420.6284    12.994831    12.994831    12.994831    1.0088118 
   12850    291.72731   -3555312.5    1707.6012    12.994831    12.994831    12.994831    1.0088118 
   12900    306.28673   -3555315.7    1972.3568    12.994831    12.994831    12.994831    1.0088118 
   12950    319.06551   -3555298.9    5778.2574    12.994831    12.994831    12.994831    1.0088118 
   13000    283.81408   -3555326.8    3725.9251    12.994831    12.994831    12.994831    1.0088118 
   13050     303.2923   -3555306.8    5060.6355    12.994831    12.994831    12.994831    1.0088118 
   13100    276.42419   -3555343.1    -253.8574    12.994831    12.994831    12.994831    1.0088118 
   13150    305.69286   -3555304.9    4847.9512    12.994831    12.994831    12.994831    1.0088118 
   13200    289.33845   -3555319.3    6871.6192    12.994831    12.994831    12.994831    1.0088118 
   13250     294.2401   -3555318.3    1023.4574    12.994831    12.994831    12.994831    1.0088118 
   13300    291.67584   -3555309.6   -2951.7882    12.994831    12.994831    12.994831    1.0088118 
   13350    290.92354   -3555326.7    7778.9503    12.994831    12.994831    12.994831    1.0088118 
   13400    309.58696   -3555307.7    1771.1559    12.994831    12.994831    12.994831    1.0088118 
   13450    302.37907     -3555305    621.30944    12.994831    12.994831    12.994831    1.0088118 
   13500    309.23692   -3555301.7    2251.3131    12.994831    12.994831    12.994831    1.0088118 
   13550    297.59417   -3555321.4    4529.1915    12.994831    12.994831    12.994831    1.0088118 
   13600    285.80925   -3555309.3   -1361.1599    12.994831    12.994831    12.994831    1.0088118 
   13650    304.00187   -3555303.3    4277.0459    12.994831    12.994831    12.994831    1.0088118 
   13700    307.47157     -3555290    797.82449    12.994831    12.994831    12.994831    1.0088118 
   13750    297.95676     -3555313    5244.8086    12.994831    12.994831    12.994831    1.0088118 
   13800     283.3954   -3555294.5    3402.8351    12.994831    12.994831    12.994831    1.0088118 
   13850    306.68369   -3555303.6    5000.8382    12.994831    12.994831    12.994831    1.0088118 
   13900     288.3273   -3555310.5    2629.5602    12.994831    12.994831    12.994831    1.0088118 
   13950    309.30685   -3555314.4    3283.4363    12.994831    12.994831    12.994831    1.0088118 
   14000    301.95375     -3555297    1398.6097    12.994831    12.994831    12.994831    1.0088118 
   14050    287.63198   -3555330.3     8714.887    12.994831    12.994831    12.994831    1.0088118 
   14100    305.00247   -3555298.6   -1092.3818    12.994831    12.994831    12.994831    1.0088118 
   14150     314.7389   -3555298.8    5714.2861    12.994831    12.994831    12.994831    1.0088118 
   14200      273.761     -3555338    -2312.626    12.994831    12.994831    12.994831    1.0088118 
   14250    312.21995   -3555307.9    7949.4803    12.994831    12.994831    12.994831    1.0088118 
   14300    322.36424   -3555275.7   -5781.3037    12.994831    12.994831    12.994831    1.0088118 
   14350    304.72908   -3555295.9    9987.2603    12.994831    12.994831    12.994831    1.0088118 
   14400    280.08894   -3555310.6    611.25132    12.994831    12.994831    12.994831    1.0088118 
   14450    302.10575   -3555282.7    7604.9643    12.994831    12.994831    12.994831    1.0088118 
   14500     281.0409   -3555311.3   -3447.6182    12.994831    12.994831    12.994831    1.0088118 
   14550    329.02015   -3555291.4    10334.819    12.994831    12.994831    12.994831    1.0088118 
   14600    293.40041   -3555313.5   -3291.9052    12.994831    12.994831    12.994831    1.0088118 
   14650    295.77313   -3555312.9    3367.4745    12.994831    12.994831    12.994831    1.0088118 
   14700    305.75232   -3555328.1    4490.8961    12.994831    12.994831    12.994831    1.0088118 
   14750    301.06759   -3555305.6    6704.0419    12.994831    12.994831    12.994831    1.0088118 
   14800    295.04417     -3555333   -3144.4974    12.994831    12.994831    12.994831    1.0088118 
   14850    328.50351   -3555301.7     3232.098    12.994831    12.994831    12.994831    1.0088118 
   14900    291.31823   -3555334.1    4403.3494    12.994831    12.994831    12.994831    1.0088118 
   14950    321.82211   -3555300.7    3689.4323    12.994831    12.994831    12.994831    1.0088118 
   15000    278.79966   -3555325.9     1498.993    12.994831    12.994831    12.994831    1.0088118 
   15050    307.83844   -3555302.2    1239.2025    12.994831    12.994831    12.994831    1.0088118 
   15100    303.73136   -3555312.2    2034.4244    12.994831    12.994831    12.994831    1.0088118 
   15150    305.43296   -3555308.5    3934.5449    12.994831    12.994831    12.994831    1.0088118 
   15200     283.0352     -3555324    491.60313    12.994831    12.994831    12.994831    1.0088118 
   15250    307.01833   -3555291.7    4372.6147    12.994831    12.994831    12.994831    1.0088118 
   15300    327.94041   -3555284.4    2987.6064    12.994831    12.994831    12.994831    1.0088118 
   15350    303.13862   -3555281.1    7624.0458    12.994831    12.994831    12.994831    1.0088118 
   15400    270.23371   -3555303.6    1936.6507    12.994831    12.994831    12.994831    1.0088118 
   15450    326.50618   -3555279.7     7895.964    12.994831    12.994831    12.994831    1.0088118 
   15500    273.18291   -3555322.9    5079.7934    12.994831    12.994831    12.994831    1.0088118 
   15550    311.81959   -3555286.6    544.74581    12.994831    12.994831    12.994831    1.0088118 
   15600    305.41784   -3555304.1    7230.6228    12.994831    12.994831    12.994831    1.0088118 
   15650    292.93732   -3555312.3    3453.8769    12.994831    12.994831    12.994831    1.0088118 
   15700    317.36292   -3555287.1    2673.6381    12.994831    12.994831    12.994831    1.0088118 
   15750    298.69587   -3555307.4    4993.7132    12.994831    12.994831    12.994831    1.0088118 
   15800    296.14179   -3555305.3    3939.8797    12.994831    12.994831    12.994831    1.0088118 
   15850    318.02024   -3555290.5    3472.3948    12.994831    12.994831    12.994831    1.0088118 
   15900    301.78912   -3555326.1    4880.7149    12.994831    12.994831    12.994831    1.0088118 
   15950    320.36163   -3555300.1    2655.7574    12.994831    12.994831    12.994831    1.0088118 
   16000     302.0498   -3555321.9    8155.5259    12.994831    12.994831    12.994831    1.0088118 
   16050    294.61932   -3555337.8     1318.571    12.994831    12.994831    12.994831    1.0088118 
   16100     320.5045     -3555318    3998.2021    12.994831    12.994831    12.994831    1.0088118 
   16150    280.74585   -3555343.4    2957.1113    12.994831    12.994831    12.994831    1.0088118 
   16200    284.88439   -3555312.7     4523.942    12.994831    12.994831    12.994831    1.0088118 
   16250    283.94702   -3555326.1    9884.1982    12.994831    12.994831    12.994831    1.0088118 
   16300    307.98666   -3555310.1    298.69639    12.994831    12.994831    12.994831    1.0088118 
   16350    294.80803   -3555323.7    8239.7221    12.994831    12.994831    12.994831    1.0088118 
   16400    303.86352   -3555298.5    1165.0926    12.994831    12.994831    12.994831    1.0088118 
   16450     291.9271   -3555295.5    6651.2853    12.994831    12.994831    12.994831    1.0088118 
   16500    303.13469   -3555321.4    1910.5716    12.994831    12.994831    12.994831    1.0088118 
   16550    307.23245   -3555296.1    3550.0075    12.994831    12.994831    12.994831    1.0088118 
   16600    286.53132   -3555317.6    4958.4123    12.994831    12.994831    12.994831    1.0088118 
   16650    312.16077   -3555311.7    35.058866    12.994831    12.994831    12.994831    1.0088118 
   16700    312.02395   -3555295.1    2161.9131    12.994831    12.994831    12.994831    1.0088118 
   16750    271.63749   -3555324.6    3231.5114    12.994831    12.994831    12.994831    1.0088118 
   16800    319.17064   -3555292.5    6888.8442    12.994831    12.994831    12.994831    1.0088118 
   16850     303.5832   -3555283.7    -6579.061    12.994831    12.994831    12.994831    1.0088118 
   16900    314.41174   -3555307.1    10820.445    12.994831    12.994831    12.994831    1.0088118 
   16950    312.86042   -3555304.7   -4060.2103    12.994831    12.994831    12.994831    1.0088118 
   17000    279.15443   -3555329.9    3520.2444    12.994831    12.994831    12.994831    1.0088118 
   17050    304.33893     -3555290    1222.1192    12.994831    12.994831    12.994831    1.0088118 
   17100    296.05204   -3555296.9     5648.706    12.994831    12.994831    12.994831    1.0088118 
   17150    286.81415   -3555329.1    333.44033    12.994831    12.994831    12.994831    1.0088118 
   17200     297.4984   -3555291.6    6519.4836    12.994831    12.994831    12.994831    1.0088118 
   17250    285.80738   -3555309.8    409.07779    12.994831    12.994831    12.994831    1.0088118 
   17300    315.24589     -3555271    4606.7526    12.994831    12.994831    12.994831    1.0088118 
   17350    281.39352   -3555315.3    2664.0071    12.994831    12.994831    12.994831    1.0088118 
   17400    323.17364   -3555302.6    5122.1557    12.994831    12.994831    12.994831    1.0088118 
   17450    280.19264   -3555322.1    4768.7121    12.994831    12.994831    12.994831    1.0088118 
   17500    299.95513   -3555306.1    2285.3187    12.994831    12.994831    12.994831    1.0088118 
   17550    293.53763   -3555329.4    5050.8997    12.994831    12.994831    12.994831    1.0088118 
   17600    319.27297     -3555309    5033.8601    12.994831    12.994831    12.994831    1.0088118 
   17650    284.49874   -3555331.6     582.5291    12.994831    12.994831    12.994831    1.0088118 
   17700    323.90763   -3555301.3    3091.1329    12.994831    12.994831    12.994831    1.0088118 
   17750    292.99299   -3555323.5    3300.5854    12.994831    12.994831    12.994831    1.0088118 
   17800    315.70601   -3555286.4    4039.3213    12.994831    12.994831    12.994831    1.0088118 
   17850    292.26466   -3555318.3    3397.9554    12.994831    12.994831    12.994831    1.0088118 
   17900    317.50766   -3555312.1    927.45104    12.994831    12.994831    12.994831    1.0088118 
   17950    295.40845     -3555310    4329.2136    12.994831    12.994831    12.994831    1.0088118 
   18000    281.44936   -3555331.4     5844.343    12.994831    12.994831    12.994831    1.0088118 
   18050    316.10599   -3555309.7    7.0567551    12.994831    12.994831    12.994831    1.0088118 
   18100    287.92191   -3555319.4      8812.62    12.994831    12.994831    12.994831    1.0088118 
   18150    334.50957   -3555286.2      4849.05    12.994831    12.994831    12.994831    1.0088118 
   18200    297.03952   -3555318.3     2417.069    12.994831    12.994831    12.994831    1.0088118 
   18250    305.98907   -3555291.1    6953.9651    12.994831    12.994831    12.994831    1.0088118 
   18300    294.11166   -3555303.7     5200.225    12.994831    12.994831    12.994831    1.0088118 
   18350    299.40675   -3555328.5    5269.7522    12.994831    12.994831    12.994831    1.0088118 
   18400    317.02418   -3555295.5    1188.7572    12.994831    12.994831    12.994831    1.0088118 
   18450    300.66936   -3555331.1    6653.9546    12.994831    12.994831    12.994831    1.0088118 
   18500     340.6672   -3555297.6    2115.6217    12.994831    12.994831    12.994831    1.0088118 
   18550    288.65705     -3555315    3535.4886    12.994831    12.994831    12.994831    1.0088118 
   18600    316.38332   -3555305.7    3581.3733    12.994831    12.994831    12.994831    1.0088118 
   18650    283.41611   -3555337.8     2376.337    12.994831    12.994831    12.994831    1.0088118 
   18700    315.03278   -3555308.4    7276.1286    12.994831    12.994831    12.994831    1.0088118 
   18750    267.76673   -3555339.4    2080.3702    12.994831    12.994831    12.994831    1.0088118 
   18800    309.85684   -3555312.1     3970.658    12.994831    12.994831    12.994831    1.0088118 
   18850    287.33944   -3555327.4    5376.3578    12.994831    12.994831    12.994831    1.0088118 
   18900    280.70071   -3555334.2    660.63551    12.994831    12.994831    12.994831    1.0088118 
   18950    297.57586   -3555309.5    10494.824    12.994831    12.994831    12.994831    1.0088118 
   19000    257.38932   -3555337.4   -622.79026    12.994831    12.994831    12.994831    1.0088118 
   19050    278.85776   -3555315.6    9065.4704    12.994831    12.994831    12.994831    1.0088118 
   19100    271.56064   -3555343.3    1547.6183    12.994831    12.994831    12.994831    1.0088118 
   19150    300.39897   -3555311.3    6516.5629    12.994831    12.994831    12.994831    1.0088118 
   19200    279.52966   -3555315.6    8204.9396    12.994831    12.994831    12.994831    1.0088118 
   19250    288.69852   -3555311.7   -1865.0475    12.994831    12.994831    12.994831    1.0088118 
   19300     327.1835   -3555303.4    10252.686    12.994831    12.994831    12.994831    1.0088118 
   19350    295.18151   -3555323.6    5032.6127    12.994831    12.994831    12.994831    1.0088118 
   19400    319.12446   -3555303.6   -1615.3139    12.994831    12.994831    12.994831    1.0088118 
   19450    318.56459   -3555308.5    7729.0566    12.994831    12.994831    12.994831    1.0088118 
   19500    297.33929   -3555301.2     2715.984    12.994831    12.994831    12.994831    1.0088118 
   19550    290.05108   -3555331.9   -1110.0802    12.994831    12.994831    12.994831    1.0088118 
   19600    333.07504   -3555310.7     1677.337    12.994831    12.994831    12.994831    1.0088118 
   19650    288.27921   -3555308.5    3791.6973    12.994831    12.994831    12.994831    1.0088118 
   19700    273.01415   -3555317.8    524.66056    12.994831    12.994831    12.994831    1.0088118 
   19750     310.9042   -3555287.7    7344.2113    12.994831    12.994831    12.994831    1.0088118 
   19800    295.56662   -3555314.8    4146.3478    12.994831    12.994831    12.994831    1.0088118 
   19850    316.28582     -3555313    4221.7777    12.994831    12.994831    12.994831    1.0088118 
   19900    301.28956   -3555313.8    3706.9187    12.994831    12.994831    12.994831    1.0088118 
   19950    305.83885   -3555306.7   -1638.0119    12.994831    12.994831    12.994831    1.0088118 
   20000    326.80339   -3555320.7    7309.5693    12.994831    12.994831    12.994831    1.0088118 
   20050    291.92502   -3555337.5   -2281.4729    12.994831    12.994831    12.994831    1.0088118 
   20100    302.60241   -3555297.7    7433.0678    12.994831    12.994831    12.994831    1.0088118 
   20150    269.91625     -3555324    3314.1736    12.994831    12.994831    12.994831    1.0088118 
   20200     288.2194     -3555314    3592.5874    12.994831    12.994831    12.994831    1.0088118 
   20250    276.88271   -3555328.8    2172.6687    12.994831    12.994831    12.994831    1.0088118 
   20300    318.00943   -3555300.8     4156.754    12.994831    12.994831    12.994831    1.0088118 
   20350    309.84586   -3555299.2    1664.6689    12.994831    12.994831    12.994831    1.0088118 
   20400    277.76259   -3555328.1    2191.4772    12.994831    12.994831    12.994831    1.0088118 
   20450    326.33384   -3555287.8    3623.9004    12.994831    12.994831    12.994831    1.0088118 
   20500     273.4761   -3555312.7    2021.3698    12.994831    12.994831    12.994831    1.0088118 
   20550    323.16819     -3555287    8499.1627    12.994831    12.994831    12.994831    1.0088118 
   20600    294.62697   -3555308.5   -821.33456    12.994831    12.994831    12.994831    1.0088118 
   20650    299.39036   -3555332.2    7408.0825    12.994831    12.994831    12.994831    1.0088118 
   20700    293.29604   -3555318.2    815.72416    12.994831    12.994831    12.994831    1.0088118 
   20750    278.90464   -3555338.6    5689.2895    12.994831    12.994831    12.994831    1.0088118 
   20800    308.12227   -3555325.6    7912.5047    12.994831    12.994831    12.994831    1.0088118 
   20850    319.91589   -3555307.3    5479.5806    12.994831    12.994831    12.994831    1.0088118 
   20900    299.71666   -3555332.2    351.98025    12.994831    12.994831    12.994831    1.0088118 
   20950    304.61001   -3555319.2    6891.4664    12.994831    12.994831    12.994831    1.0088118 
   21000    296.14063   -3555321.4    8065.1884    12.994831    12.994831    12.994831    1.0088118 
   21050    310.56107   -3555328.4    -863.2198    12.994831    12.994831    12.994831    1.0088118 
   21100    278.55471   -3555332.1    10644.849    12.994831    12.994831    12.994831    1.0088118 
   21150    300.28816   -3555308.3   -2142.9517    12.994831    12.994831    12.994831    1.0088118 
   21200    335.63384   -3555277.2    9600.8885    12.994831    12.994831    12.994831    1.0088118 
   21250    292.09436   -3555320.1    3336.1976    12.994831    12.994831    12.994831    1.0088118 
   21300    304.11623   -3555281.4    3499.2698    12.994831    12.994831    12.994831    1.0088118 
   21350    285.36657   -3555305.9    3568.4601    12.994831    12.994831    12.994831    1.0088118 
   21400     301.6836   -3555299.9    6139.5943    12.994831    12.994831    12.994831    1.0088118 
   21450     307.8527   -3555258.2    3865.1312    12.994831    12.994831    12.994831    1.0088118 
   21500    287.90315   -3555293.5    11880.273    12.994831    12.994831    12.994831    1.0088118 
   21550     291.1481   -3555312.7   -4517.8281    12.994831    12.994831    12.994831    1.0088118 
   21600    318.00415   -3555303.6     7293.835    12.994831    12.994831    12.994831    1.0088118 
   21650    274.78834   -3555307.4    4955.7745    12.994831    12.994831    12.994831    1.0088118 
   21700     331.2133   -3555279.5    7573.0795    12.994831    12.994831    12.994831    1.0088118 
   21750    294.19558   -3555295.7    -418.2139    12.994831    12.994831    12.994831    1.0088118 
   21800    286.09033   -3555329.8    5947.2832    12.994831    12.994831    12.994831    1.0088118 
   21850    299.65589   -3555296.3    3991.0482    12.994831    12.994831    12.994831    1.0088118 
   21900    311.63467   -3555284.2    1313.2603    12.994831    12.994831    12.994831    1.0088118 
   21950    304.14437   -3555318.5    9310.4717    12.994831    12.994831    12.994831    1.0088118 
   22000    297.21638   -3555315.4   -3246.8223    12.994831    12.994831    12.994831    1.0088118 
   22050    290.72709     -3555320    8000.9657    12.994831    12.994831    12.994831    1.0088118 
   22100    297.94935     -3555310   -923.80877    12.994831    12.994831    12.994831    1.0088118 
   22150    304.65095   -3555291.1    5825.0592    12.994831    12.994831    12.994831    1.0088118 
   22200    295.25683     -3555311     3690.834    12.994831    12.994831    12.994831    1.0088118 
   22250    277.41244   -3555316.2    1401.8603    12.994831    12.994831    12.994831    1.0088118 
   22300    328.73898   -3555277.4    5412.7167    12.994831    12.994831    12.994831    1.0088118 
   22350    274.82511   -3555314.7    63.831513    12.994831    12.994831    12.994831    1.0088118 
   22400    306.73394   -3555286.2    5623.5809    12.994831    12.994831    12.994831    1.0088118 
   22450    303.35754   -3555292.6    2560.0409    12.994831    12.994831    12.994831    1.0088118 
   22500    304.44967   -3555304.7    5298.2664    12.994831    12.994831    12.994831    1.0088118 
   22550    312.68987   -3555271.8   -2474.9668    12.994831    12.994831    12.994831    1.0088118 
   22600    308.04081   -3555318.1    6908.8152    12.994831    12.994831    12.994831    1.0088118 
   22650     331.3794   -3555288.7    1549.8111    12.994831    12.994831    12.994831    1.0088118 
   22700    305.92084   -3555310.3    9843.4102    12.994831    12.994831    12.994831    1.0088118 
   22750    264.93824   -3555338.7   -5239.7445    12.994831    12.994831    12.994831    1.0088118 
   22800     303.2027   -3555311.6     10200.07    12.994831    12.994831    12.994831    1.0088118 
   22850    344.17777   -3555279.3    1784.4023    12.994831    12.994831    12.994831    1.0088118 
   22900    323.01776     -3555313    1086.9334    12.994831    12.994831    12.994831    1.0088118 
   22950    302.45275   -3555303.9    3974.1275    12.994831    12.994831    12.994831    1.0088118 
   23000    312.81179   -3555290.7     1156.924    12.994831    12.994831    12.994831    1.0088118 
   23050    282.24035   -3555300.2    5353.4776    12.994831    12.994831    12.994831    1.0088118 
   23100     319.4611   -3555291.7   -2627.1529    12.994831    12.994831    12.994831    1.0088118 
   23150    297.90969   -3555298.2    9700.5748    12.994831    12.994831    12.994831    1.0088118 
   23200    295.44714   -3555319.1    2116.3974    12.994831    12.994831    12.994831    1.0088118 
   23250    323.77068     -3555290    3408.7502    12.994831    12.994831    12.994831    1.0088118 
   23300    314.64948   -3555290.1    1670.8431    12.994831    12.994831    12.994831    1.0088118 
   23350    301.78774   -3555323.5    5004.5317    12.994831    12.994831    12.994831    1.0088118 
   23400    323.52814   -3555292.2    1031.5586    12.994831    12.994831    12.994831    1.0088118 
   23450    323.26412   -3555304.7    1088.2665    12.994831    12.994831    12.994831    1.0088118 
   23500    277.26817   -3555341.4    4779.0455    12.994831    12.994831    12.994831    1.0088118 
   23550    299.59117   -3555304.9   -3281.3207    12.994831    12.994831    12.994831    1.0088118 
   23600    286.08563   -3555333.9    6213.0823    12.994831    12.994831    12.994831    1.0088118 
   23650     301.8721   -3555301.7   -1493.9207    12.994831    12.994831    12.994831    1.0088118 
   23700    323.29917   -3555285.1    4462.9135    12.994831    12.994831    12.994831    1.0088118 
   23750    285.12093   -3555314.7    2405.8767    12.994831    12.994831    12.994831    1.0088118 
   23800    317.54336     -3555291   -434.10642    12.994831    12.994831    12.994831    1.0088118 
   23850    288.24624   -3555307.8    3265.7354    12.994831    12.994831    12.994831    1.0088118 
   23900    299.86486   -3555311.1     1802.196    12.994831    12.994831    12.994831    1.0088118 
   23950    309.67701   -3555292.8    4220.5683    12.994831    12.994831    12.994831    1.0088118 
   24000     302.2565   -3555292.4    2214.0987    12.994831    12.994831    12.994831    1.0088118 
   24050    304.12338   -3555308.5    4481.0159    12.994831    12.994831    12.994831    1.0088118 
   24100    278.30521     -3555320    3176.6815    12.994831    12.994831    12.994831    1.0088118 
   24150    307.98261   -3555299.6    4024.0157    12.994831    12.994831    12.994831    1.0088118 
   24200    324.95127   -3555289.9    4295.3157    12.994831    12.994831    12.994831    1.0088118 
   24250    277.95545   -3555320.1    7938.0714    12.994831    12.994831    12.994831    1.0088118 
   24300    323.08719   -3555292.3    1024.6992    12.994831    12.994831    12.994831    1.0088118 
   24350    292.19474   -3555323.7    1951.2556    12.994831    12.994831    12.994831    1.0088118 
   24400    334.36091   -3555278.3    11709.047    12.994831    12.994831    12.994831    1.0088118 
   24450      296.242   -3555306.4    3513.4455    12.994831    12.994831    12.994831    1.0088118 
   24500     302.3201   -3555296.7   -499.18385    12.994831    12.994831    12.994831    1.0088118 
   24550    269.35872   -3555332.9    11966.614    12.994831    12.994831    12.994831    1.0088118 
   24600    296.54866   -3555311.1   -961.57837    12.994831    12.994831    12.994831    1.0088118 
   24650    289.03006   -3555318.5    3584.0229    12.994831    12.994831    12.994831    1.0088118 
   24700    301.10717   -3555312.8    6067.7572    12.994831    12.994831    12.994831    1.0088118 
   24750    303.02681   -3555311.9    5023.9317    12.994831    12.994831    12.994831    1.0088118 
   24800    319.40121   -3555311.8    4568.5181    12.994831    12.994831    12.994831    1.0088118 
   24850    278.81033   -3555341.3    1586.5302    12.994831    12.994831    12.994831    1.0088118 
   24900    302.76671   -3555309.5     4459.128    12.994831    12.994831    12.994831    1.0088118 
   24950    283.00522     -3555308    6049.0596    12.994831    12.994831    12.994831    1.0088118 
   25000    306.69496   -3555296.6   -2943.8466    12.994831    12.994831    12.994831    1.0088118 
   25050     335.4961   -3555286.1    8226.0167    12.994831    12.994831    12.994831    1.0088118 
   25100    288.45203   -3555313.6    4093.1106    12.994831    12.994831    12.994831    1.0088118 
   25150    296.05119   -3555296.5    327.62125    12.994831    12.994831    12.994831    1.0088118 
   25200    297.54756   -3555289.2    5369.3604    12.994831    12.994831    12.994831    1.0088118 
   25250    297.91519   -3555305.8    5850.1367    12.994831    12.994831    12.994831    1.0088118 
   25300    295.85893   -3555287.6   -4633.5088    12.994831    12.994831    12.994831    1.0088118 
   25350    283.79196   -3555310.7    7898.5116    12.994831    12.994831    12.994831    1.0088118 
   25400    301.51311   -3555286.6   -3629.6488    12.994831    12.994831    12.994831    1.0088118 
   25450    300.91998     -3555299    4279.7137    12.994831    12.994831    12.994831    1.0088118 
   25500    303.91389   -3555313.8    1142.5066    12.994831    12.994831    12.994831    1.0088118 
   25550    330.95729   -3555282.8    2128.7024    12.994831    12.994831    12.994831    1.0088118 
   25600    292.19873   -3555316.6    2754.0581    12.994831    12.994831    12.994831    1.0088118 
   25650     326.0442   -3555286.9   -1763.4225    12.994831    12.994831    12.994831    1.0088118 
   25700    304.73458   -3555289.7    4280.0447    12.994831    12.994831    12.994831    1.0088118 
   25750    305.55392   -3555300.7    4227.8798    12.994831    12.994831    12.994831    1.0088118 
   25800    271.85022     -3555322    3391.7183    12.994831    12.994831    12.994831    1.0088118 
   25850    310.83576   -3555278.5    5787.8622    12.994831    12.994831    12.994831    1.0088118 
   25900    286.74581   -3555319.1    212.00624    12.994831    12.994831    12.994831    1.0088118 
   25950    303.84238     -3555299    4404.3291    12.994831    12.994831    12.994831    1.0088118 
   26000    292.92624   -3555283.2     729.4052    12.994831    12.994831    12.994831    1.0088118 
   26050     283.6861   -3555304.9    4195.7521    12.994831    12.994831    12.994831    1.0088118 
   26100    290.99074   -3555270.8    3349.0558    12.994831    12.994831    12.994831    1.0088118 
   26150    305.31858   -3555292.5    2073.5812    12.994831    12.994831    12.994831    1.0088118 
   26200    279.05745   -3555304.8   -3162.7471    12.994831    12.994831    12.994831    1.0088118 
   26250    324.15539   -3555262.8    16380.071    12.994831    12.994831    12.994831    1.0088118 
   26300    286.10257   -3555313.4   -8835.8522    12.994831    12.994831    12.994831    1.0088118 
   26350    303.57582   -3555292.3    6516.3919    12.994831    12.994831    12.994831    1.0088118 
   26400    296.83882   -3555318.5    1468.8295    12.994831    12.994831    12.994831    1.0088118 
   26450    292.92762   -3555311.4    6963.1695    12.994831    12.994831    12.994831    1.0088118 
   26500    297.26211   -3555304.2   -791.52752    12.994831    12.994831    12.994831    1.0088118 
   26550    301.69267   -3555307.7    2415.9137    12.994831    12.994831    12.994831    1.0088118 
   26600    304.77683   -3555309.7    5338.8858    12.994831    12.994831    12.994831    1.0088118 
   26650    290.20887   -3555320.9    1796.2982    12.994831    12.994831    12.994831    1.0088118 
   26700    315.64506   -3555298.5   -1321.7728    12.994831    12.994831    12.994831    1.0088118 
   26750    317.50855   -3555328.1    4293.7047    12.994831    12.994831    12.994831    1.0088118 
   26800    297.34671   -3555304.2    2815.2157    12.994831    12.994831    12.994831    1.0088118 
   26850    290.90537   -3555299.4    4045.9365    12.994831    12.994831    12.994831    1.0088118 
   26900    265.38038   -3555336.5     -370.694    12.994831    12.994831    12.994831    1.0088118 
   26950    298.09159   -3555314.6    2572.2563    12.994831    12.994831    12.994831    1.0088118 
   27000    301.42171   -3555302.5    1881.2994    12.994831    12.994831    12.994831    1.0088118 
   27050    274.05094     -3555322    3504.1001    12.994831    12.994831    12.994831    1.0088118 
   27100    311.99038     -3555286    7099.2784    12.994831    12.994831    12.994831    1.0088118 
   27150    291.78606   -3555314.7    2564.0615    12.994831    12.994831    12.994831    1.0088118 
   27200    287.32996   -3555327.3   -2151.2464    12.994831    12.994831    12.994831    1.0088118 
   27250    324.50336   -3555298.7     3713.961    12.994831    12.994831    12.994831    1.0088118 
   27300    275.34447     -3555325    5513.9599    12.994831    12.994831    12.994831    1.0088118 
   27350    315.55671   -3555287.6    1496.2435    12.994831    12.994831    12.994831    1.0088118 
   27400    286.79707   -3555322.8    1351.9723    12.994831    12.994831    12.994831    1.0088118 
   27450    324.25255   -3555292.2    2256.4716    12.994831    12.994831    12.994831    1.0088118 
   27500    275.22738   -3555333.3    4762.1969    12.994831    12.994831    12.994831    1.0088118 
   27550    288.78523   -3555313.4    1256.2076    12.994831    12.994831    12.994831    1.0088118 
   27600    329.03751   -3555288.1    6234.4272    12.994831    12.994831    12.994831    1.0088118 
   27650     281.1754   -3555315.1   -1417.3192    12.994831    12.994831    12.994831    1.0088118 
   27700    292.52316   -3555300.6    4574.0617    12.994831    12.994831    12.994831    1.0088118 
   27750    296.84785   -3555299.5    4554.6804    12.994831    12.994831    12.994831    1.0088118 
   27800     294.0272   -3555305.4     2750.844    12.994831    12.994831    12.994831    1.0088118 
   27850    293.29919   -3555310.4   -11.556427    12.994831    12.994831    12.994831    1.0088118 
   27900    305.76867   -3555319.2     2331.517    12.994831    12.994831    12.994831    1.0088118 
   27950    278.71642   -3555342.5    548.73863    12.994831    12.994831    12.994831    1.0088118 
   28000    323.35593   -3555302.7     6152.681    12.994831    12.994831    12.994831    1.0088118 
   28050    289.63003   -3555330.5   -688.65818    12.994831    12.994831    12.994831    1.0088118 
   28100    313.81983   -3555320.7    3344.5899    12.994831    12.994831    12.994831    1.0088118 
   28150    292.52603   -3555326.1    1315.2545    12.994831    12.994831    12.994831    1.0088118 
   28200     295.6789   -3555323.9    7936.4201    12.994831    12.994831    12.994831    1.0088118 
   28250    292.79162   -3555334.8    -149.8789    12.994831    12.994831    12.994831    1.0088118 
   28300    325.36105   -3555304.1     1507.036    12.994831    12.994831    12.994831    1.0088118 
   28350     296.4145   -3555324.8    3832.1001    12.994831    12.994831    12.994831    1.0088118 
   28400    304.13709   -3555309.3   -2933.6215    12.994831    12.994831    12.994831    1.0088118 
   28450    291.60444   -3555326.4    10150.569    12.994831    12.994831    12.994831    1.0088118 
   28500     333.5538   -3555302.8    1343.8851    12.994831    12.994831    12.994831    1.0088118 
   28550      285.497   -3555331.5    7148.9367    12.994831    12.994831    12.994831    1.0088118 
   28600    282.94568   -3555313.8    647.28491    12.994831    12.994831    12.994831    1.0088118 
   28650    297.92621   -3555315.3    4241.5553    12.994831    12.994831    12.994831    1.0088118 
   28700    300.78967   -3555316.6    4712.9909    12.994831    12.994831    12.994831    1.0088118 
   28750    314.48601   -3555308.2    7427.7025    12.994831    12.994831    12.994831    1.0088118 
   28800    312.11801     -3555316    2471.3288    12.994831    12.994831    12.994831    1.0088118 
   28850    310.06138   -3555277.3    5997.7502    12.994831    12.994831    12.994831    1.0088118 
   28900    304.56907   -3555313.9    3114.6201    12.994831    12.994831    12.994831    1.0088118 
   28950    295.81064   -3555297.3   -947.50934    12.994831    12.994831    12.994831    1.0088118 
   29000     338.1089   -3555280.1     4078.318    12.994831    12.994831    12.994831    1.0088118 
   29050    293.32706   -3555318.5    1308.9785    12.994831    12.994831    12.994831    1.0088118 
   29100    311.66861   -3555307.8    2383.0533    12.994831    12.994831    12.994831    1.0088118 
   29150    302.25429   -3555322.7    553.25106    12.994831    12.994831    12.994831    1.0088118 
   29200    291.51839   -3555328.1    5379.9821    12.994831    12.994831    12.994831    1.0088118 
   29250    287.43022   -3555321.5   -498.78627    12.994831    12.994831    12.994831    1.0088118 
   29300      300.474   -3555322.9    4006.2237    12.994831    12.994831    12.994831    1.0088118 
   29350    294.67281   -3555309.4    2985.5536    12.994831    12.994831    12.994831    1.0088118 
   29400    315.49023     -3555295    7830.3823    12.994831    12.994831    12.994831    1.0088118 
   29450    285.67193   -3555322.8    587.58809    12.994831    12.994831    12.994831    1.0088118 
   29500    325.19243     -3555289    6006.7742    12.994831    12.994831    12.994831    1.0088118 
   29550    303.50861   -3555318.6    8381.5012    12.994831    12.994831    12.994831    1.0088118 
   29600    292.55385   -3555325.3    -1195.614    12.994831    12.994831    12.994831    1.0088118 
   29650    307.43043   -3555316.1     3226.049    12.994831    12.994831    12.994831    1.0088118 
   29700    307.01104   -3555330.7    1324.2562    12.994831    12.994831    12.994831    1.0088118 
   29750    273.26807   -3555362.5    3967.8509    12.994831    12.994831    12.994831    1.0088118 
   29800    294.70151   -3555325.7   -3409.9583    12.994831    12.994831    12.994831    1.0088118 
   29850    299.74762   -3555291.6    6016.0739    12.994831    12.994831    12.994831    1.0088118 
   29900    339.63143   -3555262.6     6538.028    12.994831    12.994831    12.994831    1.0088118 
   29950    295.67442   -3555289.7    1648.5883    12.994831    12.994831    12.994831    1.0088118 
   30000    315.27964   -3555265.9    4469.1163    12.994831    12.994831    12.994831    1.0088118 
   30050    297.50822   -3555319.9    2289.9146    12.994831    12.994831    12.994831    1.0088118 
   30100    320.01088   -3555298.3    1326.0093    12.994831    12.994831    12.994831    1.0088118 
   30150    293.61218   -3555335.7    2433.8999    12.994831    12.994831    12.994831    1.0088118 
   30200    323.36014   -3555303.3   -638.47126    12.994831    12.994831    12.994831    1.0088118 
   30250     288.2108   -3555318.8    3838.1867    12.994831    12.994831    12.994831    1.0088118 
   30300     282.6945   -3555307.2    4619.7055    12.994831    12.994831    12.994831    1.0088118 
   30350    299.23273   -3555301.2   -2924.0662    12.994831    12.994831    12.994831    1.0088118 
   30400    309.17865   -3555314.9    11736.559    12.994831    12.994831    12.994831    1.0088118 
   30450    281.44691   -3555349.1    192.66458    12.994831    12.994831    12.994831    1.0088118 
   30500    326.31465   -3555308.6    2387.8817    12.994831    12.994831    12.994831    1.0088118 
   30550    283.96125   -3555329.2    152.19769    12.994831    12.994831    12.994831    1.0088118 
   30600    300.07193     -3555310    3073.8013    12.994831    12.994831    12.994831    1.0088118 
   30650    302.63097   -3555291.6    6956.5525    12.994831    12.994831    12.994831    1.0088118 
   30700    298.93196   -3555309.9   -1536.1262    12.994831    12.994831    12.994831    1.0088118 
   30750    353.56084   -3555273.9    5206.3167    12.994831    12.994831    12.994831    1.0088118 
   30800    286.74921   -3555291.9    88.882251    12.994831    12.994831    12.994831    1.0088118 
   30850    303.86954   -3555305.1     5543.914    12.994831    12.994831    12.994831    1.0088118 
   30900    290.80663   -3555306.4     2030.149    12.994831    12.994831    12.994831    1.0088118 
   30950    302.52201   -3555298.9    1300.2135    12.994831    12.994831    12.994831    1.0088118 
   31000    268.58641   -3555314.1    4286.6852    12.994831    12.994831    12.994831    1.0088118 
   31050    289.64327   -3555309.2    2810.3848    12.994831    12.994831    12.994831    1.0088118 
   31100    279.10449   -3555319.1    2039.6455    12.994831    12.994831    12.994831    1.0088118 
   31150    281.36742   -3555317.2    7883.3359    12.994831    12.994831    12.994831    1.0088118 
   31200    282.83637     -3555344    875.26314    12.994831    12.994831    12.994831    1.0088118 
   31250    323.05536   -3555318.5     1430.867    12.994831    12.994831    12.994831    1.0088118 
   31300    286.09736   -3555344.8    5360.6019    12.994831    12.994831    12.994831    1.0088118 
   31350     316.0137   -3555340.9    5370.3522    12.994831    12.994831    12.994831    1.0088118 
   31400    306.99108   -3555338.9   -4246.9283    12.994831    12.994831    12.994831    1.0088118 
   31450    285.06589   -3555351.9    4715.8833    12.994831    12.994831    12.994831    1.0088118 
   31500    270.56727   -3555312.2    928.70871    12.994831    12.994831    12.994831    1.0088118 
   31550    340.30292     -3555278     1078.266    12.994831    12.994831    12.994831    1.0088118 
   31600    280.04968   -3555318.7    504.31956    12.994831    12.994831    12.994831    1.0088118 
   31650    294.16946   -3555318.6    8593.0306    12.994831    12.994831    12.994831    1.0088118 
   31700    268.63572   -3555343.5   -3494.8163    12.994831    12.994831    12.994831    1.0088118 
   31750    296.04515   -3555304.4    3761.5894    12.994831    12.994831    12.994831    1.0088118 
   31800    318.30662   -3555303.2    5514.1669    12.994831    12.994831    12.994831    1.0088118 
   31850    292.43899   -3555323.7    3660.5438    12.994831    12.994831    12.994831    1.0088118 
   31900    315.97539   -3555293.2    5639.5555    12.994831    12.994831    12.994831    1.0088118 
   31950    291.35309   -3555313.9    465.99455    12.994831    12.994831    12.994831    1.0088118 
   32000    290.15933   -3555322.2     6734.784    12.994831    12.994831    12.994831    1.0088118 
   32050    317.05961   -3555323.3    2027.3221    12.994831    12.994831    12.994831    1.0088118 
   32100    275.28009   -3555313.6    4872.1651    12.994831    12.994831    12.994831    1.0088118 
   32150    296.38349   -3555311.9   -548.54781    12.994831    12.994831    12.994831    1.0088118 
   32200    256.48262   -3555346.7    6378.0947    12.994831    12.994831    12.994831    1.0088118 
   32250    313.74089   -3555304.4    -1055.628    12.994831    12.994831    12.994831    1.0088118 
   32300     264.6275   -3555323.1    2840.5657    12.994831    12.994831    12.994831    1.0088118 
   32350     318.6348   -3555294.5    1794.1428    12.994831    12.994831    12.994831    1.0088118 
   32400     298.0597   -3555315.3    2712.8758    12.994831    12.994831    12.994831    1.0088118 
   32450    304.27648   -3555311.4    509.62252    12.994831    12.994831    12.994831    1.0088118 
   32500    288.04376   -3555318.1    4581.7877    12.994831    12.994831    12.994831    1.0088118 
   32550    297.87257   -3555320.3   -2682.0957    12.994831    12.994831    12.994831    1.0088118 
   32600    299.24819   -3555307.7    5799.1249    12.994831    12.994831    12.994831    1.0088118 
   32650    290.83784   -3555320.8    671.99083    12.994831    12.994831    12.994831    1.0088118 
   32700    287.44963   -3555312.4    2342.5375    12.994831    12.994831    12.994831    1.0088118 
   32750     322.1603   -3555302.8    2055.4722    12.994831    12.994831    12.994831    1.0088118 
   32800    306.33942   -3555303.5    5364.0502    12.994831    12.994831    12.994831    1.0088118 
   32850    307.61173   -3555303.2    -209.3425    12.994831    12.994831    12.994831    1.0088118 
   32900    290.73866   -3555315.4     3156.211    12.994831    12.994831    12.994831    1.0088118 
   32950    298.18629   -3555310.8    1678.6504    12.994831    12.994831    12.994831    1.0088118 
   33000    316.77939     -3555292    4326.4231    12.994831    12.994831    12.994831    1.0088118 
   33050     296.9631   -3555305.4   -3950.8122    12.994831    12.994831    12.994831    1.0088118 
   33100     307.7583   -3555311.9    8406.0831    12.994831    12.994831    12.994831    1.0088118 
   33150    308.16531   -3555301.5      160.852    12.994831    12.994831    12.994831    1.0088118 
   33200    282.50639   -3555323.5   -568.63351    12.994831    12.994831    12.994831    1.0088118 
   33250    315.24426   -3555296.2    1605.1425    12.994831    12.994831    12.994831    1.0088118 
   33300    307.74977   -3555312.4    2609.4472    12.994831    12.994831    12.994831    1.0088118 
   33350    304.26819   -3555318.5   -962.79064    12.994831    12.994831    12.994831    1.0088118 
   33400    308.10705   -3555314.2    2090.1286    12.994831    12.994831    12.994831    1.0088118 
   33450    321.56212   -3555291.4    989.86826    12.994831    12.994831    12.994831    1.0088118 
   33500    284.95495   -3555295.6    2603.3461    12.994831    12.994831    12.994831    1.0088118 
   33550     295.9759   -3555322.1    3272.8994    12.994831    12.994831    12.994831    1.0088118 
   33600    294.98203     -3555313    334.34922    12.994831    12.994831    12.994831    1.0088118 
   33650    297.88252   -3555322.2    3690.0565    12.994831    12.994831    12.994831    1.0088118 
   33700    309.58926   -3555309.7    4982.2899    12.994831    12.994831    12.994831    1.0088118 
   33750    295.08513   -3555326.6    3795.7563    12.994831    12.994831    12.994831    1.0088118 
   33800    336.35216   -3555301.2    4113.1281    12.994831    12.994831    12.994831    1.0088118 
   33850    300.03653   -3555327.8    438.70199    12.994831    12.994831    12.994831    1.0088118 
   33900    311.19307   -3555304.7    7907.9903    12.994831    12.994831    12.994831    1.0088118 
   33950    283.39012   -3555315.9    3423.1194    12.994831    12.994831    12.994831    1.0088118 
   34000    281.28652   -3555327.2    2186.1372    12.994831    12.994831    12.994831    1.0088118 
   34050    295.32267   -3555309.1    5150.0624    12.994831    12.994831    12.994831    1.0088118 
   34100    305.16165   -3555290.9    687.19583    12.994831    12.994831    12.994831    1.0088118 
   34150    318.31757   -3555295.2   -837.14501    12.994831    12.994831    12.994831    1.0088118 
   34200    308.49905   -3555261.5    7930.6801    12.994831    12.994831    12.994831    1.0088118 
   34250    301.24957     -3555293   -1110.4987    12.994831    12.994831    12.994831    1.0088118 
   34300    306.05009   -3555299.3    3033.2765    12.994831    12.994831    12.994831    1.0088118 
   34350    277.79665   -3555313.2    6776.9102    12.994831    12.994831    12.994831    1.0088118 
   34400    318.76682   -3555299.2    1410.3961    12.994831    12.994831    12.994831    1.0088118 
   34450    298.06799   -3555315.4    5178.0154    12.994831    12.994831    12.994831    1.0088118 
   34500    289.21358   -3555327.2   -462.31097    12.994831    12.994831    12.994831    1.0088118 
   34550    308.05211   -3555306.4     8620.586    12.994831    12.994831    12.994831    1.0088118 
   34600    271.93501   -3555335.7    521.95902    12.994831    12.994831    12.994831    1.0088118 
   34650    317.46284   -3555304.3    5215.2764    12.994831    12.994831    12.994831    1.0088118 
   34700     287.9752   -3555314.3    3353.7689    12.994831    12.994831    12.994831    1.0088118 
   34750    288.61733   -3555324.2    2700.8093    12.994831    12.994831    12.994831    1.0088118 
   34800    283.02656   -3555360.7    5019.7898    12.994831    12.994831    12.994831    1.0088118 
   34850    295.63009   -3555330.6    6044.7795    12.994831    12.994831    12.994831    1.0088118 
   34900    304.43111   -3555332.4    6069.2534    12.994831    12.994831    12.994831    1.0088118 
   34950    296.60282   -3555328.7    4725.3897    12.994831    12.994831    12.994831    1.0088118 
   35000    325.89071   -3555312.4    2226.8408    12.994831    12.994831    12.994831    1.0088118 
   35050    282.80815   -3555335.6    7437.4434    12.994831    12.994831    12.994831    1.0088118 
   35100    324.82461   -3555291.8    5239.5602    12.994831    12.994831    12.994831    1.0088118 
   35150      276.404   -3555312.2    1327.5712    12.994831    12.994831    12.994831    1.0088118 
   35200    314.45976   -3555311.4    5881.5411    12.994831    12.994831    12.994831    1.0088118 
   35250    312.49933     -3555327      1127.64    12.994831    12.994831    12.994831    1.0088118 
   35300    302.69861   -3555310.8    2623.5334    12.994831    12.994831    12.994831    1.0088118 
   35350    333.08156   -3555282.7    6214.7031    12.994831    12.994831    12.994831    1.0088118 
   35400    288.36263   -3555312.9    934.37501    12.994831    12.994831    12.994831    1.0088118 
   35450    313.75902   -3555288.9    5180.3824    12.994831    12.994831    12.994831    1.0088118 
   35500    282.66887   -3555315.2    8014.6939    12.994831    12.994831    12.994831    1.0088118 
   35550    272.69907   -3555352.3    2290.5836    12.994831    12.994831    12.994831    1.0088118 
   35600    324.08646   -3555315.5    4034.6531    12.994831    12.994831    12.994831    1.0088118 
   35650     287.8913   -3555336.2    5789.7567    12.994831    12.994831    12.994831    1.0088118 
   35700    285.88212   -3555346.3    5887.6667    12.994831    12.994831    12.994831    1.0088118 
   35750    322.19654   -3555323.9    3177.4059    12.994831    12.994831    12.994831    1.0088118 
   35800    285.91884     -3555340    7586.7819    12.994831    12.994831    12.994831    1.0088118 
   35850    330.48041     -3555292    2667.5467    12.994831    12.994831    12.994831    1.0088118 
   35900    301.33748   -3555330.3    2356.4046    12.994831    12.994831    12.994831    1.0088118 
[...]
  240000    295.75328   -3555355.5    8162.8452    1.0088118   0.25931879    98.760528    5.5274669 
  242000    340.06844   -3555319.9    3800.0873    1.0088118   0.25909097    100.31989    5.4665308 
  244000    288.65871   -3555343.5   -263.31022    1.0088118   0.25887657    100.57446    5.5006778 
  246000    300.13496   -3555332.9    485.63632    1.0088118   0.25863425    101.61224    5.5403408 
  248000    301.46523   -3555334.4    7934.3686    1.0088118   0.25842406    105.36649    5.5094148 
  250000    275.19133   -3555326.3   -1310.1324    1.0088118   0.25798511    99.808238    5.5309816 
  252000    317.26272   -3555314.2    5852.5092    1.0088118   0.25743364    100.10106    5.5162808 
  254000    275.59092   -3555304.1    1690.1987    1.0088118   0.25688323    104.20161    5.5042119 
  256000    310.80728     -3555306   -1065.7813    1.0088118   0.25653947    107.30209    5.4178559 
  258000    291.19163   -3555315.6    11789.688    1.0088118   0.25617668    108.23038    5.4219659 
  260000    284.92107   -3555319.8    7760.4943    1.0088118   0.25578655    109.66908     5.488799 
  262000    322.23593   -3555309.7    4959.4808    1.0088118   0.25544818      110.311    5.4376304 
  264000     288.4672   -3555319.3    4450.5525    1.0088118   0.25520285    113.44858    5.3987684 
  266000    280.33648   -3555330.1   -743.32435    1.0088118   0.25499251    115.85013    5.6033585 
  268000    327.43378   -3555292.1    3954.2404    1.0088118     0.254806    115.81783     5.660976 
  270000    311.86994   -3555309.8    2640.1824    1.0088118   0.25455881    116.87678     5.896977 
  272000    313.67262   -3555311.5    3553.7483    1.0088118   0.25437654    119.44388     5.851154 
  274000    336.74476   -3555268.4    4573.5201    1.0088118    0.2540717    119.19692     5.863305 
  276000    322.71182   -3555298.7   -1044.2542    1.0088118   0.25377178     119.2055    5.9501523 
  278000    285.62719   -3555333.8    433.94671    1.0088118   0.25345065    121.63612    6.0264612 
  280000    305.99653   -3555304.3    3328.5746    1.0088118   0.25307958    120.27745    6.1124994 
  282000    296.14342   -3555332.1    11504.913    1.0088118   0.25263805    120.24971    6.1323798 
  284000    285.86895     -3555308    7065.6587    1.0088118   0.25218264    122.25073    6.0611469 
  286000     312.0209   -3555314.8    3785.4831    1.0088118   0.25168378    122.81667    6.0386229 
  288000    267.33602   -3555339.5   -298.50005    1.0088118   0.25125512     124.6034    6.0108206 
  290000    290.56683   -3555306.4    6230.3455    1.0088118   0.25082826    123.73103    6.0285014 
  292000    295.91414   -3555321.2   -2203.4825    1.0088118    0.2503284    121.74251    5.9744614 
  294000    322.46632   -3555284.4    5804.0784    1.0088118   0.24977813    126.18457    5.9373504 
  296000    323.12735   -3555304.8    2614.8991    1.0088118   0.24932315    128.74818    5.9344894 
  298000    295.62252   -3555356.5    725.40424    1.0088118   0.24900862    134.71548    5.8474632 
  300000    316.57927   -3555287.1    6464.7543    1.0088118   0.24872435    132.92982    5.8276731 
  302000    302.19275   -3555320.4    5122.4249    1.0088118    0.2484589    136.52141     5.872096 
  304000    293.25344   -3555305.7    9192.2363    1.0088118   0.24818064      136.205    5.8507015 
  306000     258.4144   -3555350.3    6388.4603    1.0088118   0.24791497    138.09635    5.8260874 
  308000    318.50312   -3555297.4    2841.4684    1.0088118   0.24767196    140.01795    5.7891924 
  310000     328.0981   -3555289.2    6158.2941    1.0088118   0.24741055    142.02814    5.8353844 
  312000    293.91239   -3555313.5   -2546.0923    1.0088118   0.24720532    143.63442    5.8747332 
  314000    300.31867   -3555333.7     3120.098    1.0088118    0.2470183    146.19788    5.9810691 
  316000    280.24832   -3555320.8    7664.3545    1.0088118   0.24688709    147.13668    6.0778232 
  318000    291.82966   -3555317.3    5189.5513    1.0088118   0.24679189    152.32242    6.0543755 
  320000    280.79775   -3555319.1    1427.7522    1.0088118    0.2467373    151.25994    6.0289961 
  322000    300.97588   -3555303.5    3970.2721    1.0088118   0.24668678    156.32166    6.0649975 
  324000    288.41701   -3555309.6    2601.5376    1.0088118   0.24668257     158.9167    6.0270013 
  326000    314.87154   -3555268.3    3718.9994    1.0088118   0.24670719     162.1196    5.9644805 
  328000     280.9337   -3555332.7    1670.3568    1.0088118   0.24683334    166.74063     5.911495 
  330000    309.46644   -3555308.1    382.39959    1.0088118   0.24699716     171.4302    5.8858644 
  332000    301.80145   -3555303.9    10899.565    1.0088118   0.24725496    171.86433    5.9080066 
  334000    293.03622   -3555303.9   -4728.7018    1.0088118   0.24750725    173.92456    5.8833908 
  336000    280.83871   -3555311.6    7232.6473    1.0088118   0.24772348    175.86826    5.8682172 
  338000    277.99805   -3555310.2    1826.0384    1.0088118   0.24791731    176.58799    5.8579125 
  340000    317.74068   -3555284.2    4153.9168    1.0088118   0.24810419    177.53381    5.8432665 
  342000    314.81521   -3555298.6    7704.0645    1.0088118   0.24827952    178.42214    5.9508751 
  344000    320.57532   -3555299.5    5158.6778    1.0088118   0.24847068    185.03298    6.0808217 
  346000    301.84614   -3555291.4    3293.8884    1.0088118   0.24866711    182.98326    6.1053266 
  348000    324.24851   -3555314.2    5828.8091    1.0088118    0.2487804    181.73607    6.1121792 
  350000    339.01333   -3555283.9    1695.7765    1.0088118   0.24889451    182.97038    6.0844896 
  352000    290.16992   -3555301.6    2543.0126    1.0088118   0.24898427    185.09124    6.0332708 
  354000    288.08281   -3555328.7    6798.0425    1.0088118   0.24916134    193.08161     6.056267 
  356000    267.56166   -3555320.6    4826.2052    1.0088118   0.24939705    197.14536    6.0177831 
  358000    266.25264   -3555342.4   -838.50386    1.0088118   0.24968754    200.21274    5.9715174 
  360000    306.19966   -3555307.1    3389.1904    1.0088118   0.24996616    197.16187    5.9947239 
  362000    288.32869   -3555311.9    1075.5367    1.0088118   0.25015826    199.19907     6.030925 
  364000     299.8606     -3555279    7619.4783    1.0088118   0.25037842     200.6506    6.0040078 
  366000    303.16663   -3555314.8   -1008.4523    1.0088118   0.25059773    205.19187    6.0196411 
  368000    304.88799   -3555282.7    717.44171    1.0088118   0.25081208    203.15852    5.9751987 
  370000    305.94912   -3555285.3   -2511.8606    1.0088118   0.25100096    208.46204     5.941297 
  372000    312.92758   -3555298.2    2716.7508    1.0088118   0.25125883    213.44465    5.9424969 
  374000    301.79028   -3555309.7   -2245.0261    1.0088118   0.25152517    212.30805    5.9429983 
  376000    298.82072   -3555295.6    9544.9693    1.0088118   0.25180445    216.17818    5.9157969 
  378000    307.45897   -3555303.1    2326.7039    1.0088118   0.25211984    219.69975    5.9096814 
  380000    299.34572   -3555276.6    581.80421    1.0088118   0.25242837    220.41496    5.9242373 
  382000    304.49104   -3555311.6    7832.2004    1.0088118   0.25271911     220.3736    5.9151912 
  384000     317.4719     -3555282    3112.2318    1.0088118    0.2530298    227.81185    5.8983342 
  386000    284.42601   -3555318.3    3853.5511    1.0088118   0.25339303    229.99504    5.8863757 
  388000    293.98647   -3555315.8    3401.2248    1.0088118   0.25370963    232.34289    5.8380095 
  390000    316.65379   -3555270.9   -183.54162    1.0088118   0.25404508    232.14508    5.8510658 
  392000    292.77939   -3555324.2    8181.5687    1.0088118   0.25437512    235.37429    5.8571264 
  394000     317.8324   -3555275.1    3899.2018    1.0088118   0.25464127     231.0405    5.8465737 
  396000    284.83406   -3555309.4    8044.0937    1.0088118   0.25486956    233.33714    5.8353595 
  398000    321.96327   -3555286.4    14442.402    1.0088118   0.25506562    230.79647    5.8608454 
  400000    287.58289   -3555313.2    6122.3818    1.0088118    0.2552578    234.63615    5.8625555 
  402000    280.97277   -3555325.5    8009.9683    1.0088118   0.25544642    237.12754    5.8321003 
  404000    286.61267   -3555323.4   -2002.4333    1.0088118   0.25563107    237.44822    5.7995704 
  406000    326.75938   -3555276.2    2061.5231    1.0088118   0.25582229    240.34382    5.7840228 
  408000    329.22151   -3555323.3    6209.7855    1.0088118   0.25600481    236.83698    5.7758385 
  410000    305.68196   -3555304.8    507.46839    1.0088118   0.25615912    241.25892    5.8124969 
  412000    308.65518   -3555307.6    1507.1055    1.0088118   0.25632629    241.64537    5.7798274 
  414000    336.04361   -3555291.4    4701.4511    1.0088118   0.25646291    241.80693    5.7624905 
  416000    318.73372   -3555293.1    1468.9544    1.0088118   0.25657575    242.50338    5.7319681 
  418000    298.92559   -3555329.7    5187.0547    1.0088118   0.25669598    244.26349    5.6914545 
  420000    309.71113   -3555269.5    5898.7031    1.0088118   0.25683066    248.02417    5.7319264 
  422000    308.06971     -3555284    8284.3396    1.0088118    0.2569053    246.02331    5.7488523 
  424000    310.19765   -3555306.3    9929.5035    1.0088118   0.25700363    248.72975    5.7264326 
  426000    316.21115   -3555305.5    -339.1323    1.0088118   0.25706825    246.60374    5.6932388 
  428000    300.96999   -3555304.4     2174.544    1.0088118   0.25711701    250.68106    5.7195499 
  430000    320.16717   -3555291.6     6705.229    1.0088118   0.25721453    254.94231     5.696099 
  432000    278.77233   -3555321.7   -2309.9127    1.0088118   0.25730044    254.73069    5.7070951 
  434000    286.75461   -3555314.2    1095.1679    1.0088118   0.25737259    256.65959    5.6776272 
  436000    275.23577   -3555330.5    10347.077    1.0088118   0.25742252    253.48182    5.7512369 
  438000    291.57414   -3555300.7    -2435.974    1.0088118   0.25745157    253.38149    5.7530148 
  440000    341.98533   -3555272.4    7382.9969    1.0088118   0.25745159    253.18607    5.7667402 
  442000    271.83426     -3555313    7225.5783    1.0088118   0.25744174    256.76917    5.7708514 
  444000    297.35465   -3555304.2    3377.5091    1.0088118   0.25748939     263.2615    5.7694598 
  446000    284.42358   -3555317.2     6559.799    1.0088118   0.25756911    267.46651    5.7710562 
  448000     295.5505     -3555331     1411.296    1.0088118   0.25764117    268.19141    5.7955197 
  450000    293.76051   -3555331.5    1602.8541    1.0088118     0.257712    268.48843    5.7814575 
  452000    284.86016   -3555330.1   -2364.0205    1.0088118   0.25777111    270.00298    5.8029984 
  454000    288.31703   -3555358.9    566.95499    1.0088118   0.25781196    269.42752    5.8704278 
  456000    282.55032   -3555302.2    1699.8572    1.0088118    0.2578321    266.30536    5.9900839 
  458000    296.73009   -3555304.7    8884.0886    1.0088118   0.25780207    266.53993    5.9623633 
  460000    302.40116   -3555320.4    5504.7493    1.0088118   0.25778308    267.50435    5.9638139 
  462000    300.93717   -3555303.7     8161.113    1.0088118   0.25780583    274.50148    5.9384618 
  464000    308.61152   -3555330.5    8574.6452    1.0088118   0.25783481    277.98079    5.9064153 
  466000    282.56366   -3555311.2    8325.0638    1.0088118   0.25787663    279.81068    5.8723133 
  468000    271.46587   -3555323.9    2332.9432    1.0088118   0.25790074    281.47454    5.9570386 
  470000    328.81841   -3555280.9    3551.3696    1.0088118   0.25796118    285.78534    6.0092807 
  472000    294.70727   -3555314.2     5675.337    1.0088118   0.25801655    288.61368    5.9790583 
  474000    324.68488   -3555306.5    4524.4067    1.0088118   0.25810313    290.95566    6.0828912 
  476000    297.55221   -3555308.3    924.45941    1.0088118   0.25820513    294.28453    6.0553486 
  478000    287.00524   -3555310.4    4326.0723    1.0088118   0.25832757    298.76919    6.0865486 
  480000    286.60287   -3555287.8   -1245.8169    1.0088118    0.2584781    302.40318    6.0782181 
  482000    270.68807   -3555322.6    3759.0782    1.0088118   0.25863524    306.38564     6.066274 
  484000    313.10249   -3555296.9     5300.574    1.0088118   0.25876983    301.06877    6.0763578 
  486000    275.67433     -3555343    4004.8273    1.0088118   0.25885142     299.7814    6.1107109 
  488000    303.00276   -3555325.9     2600.436    1.0088118   0.25891113    301.53807     6.085201 
  490000    288.93641   -3555343.5     4213.222    1.0088118   0.25898977    301.91575    6.0879541 
  492000    298.01895   -3555321.7    3112.8619    1.0088118   0.25905826    304.52076    6.1153049 
  494000    294.34617   -3555335.1      1520.97    1.0088118   0.25913872    306.11515    6.1458505 
  496000    306.70715   -3555341.1    3387.7759    1.0088118   0.25920407    305.97264    6.2034088 
  498000    300.36121   -3555322.4    8586.7055    1.0088118    0.2592378    303.53875    6.2171092 
  500000    286.88882   -3555328.5    3021.8394    1.0088118   0.25928632     310.7542    6.1972288 
  502000     292.7677   -3555341.2    3433.8646    1.0088118   0.25934704    312.99239    6.1666789 
  504000     277.0776   -3555333.9    2485.7273    1.0088118   0.25941022    312.54666    6.1743545 
  506000    300.69875   -3555302.4    2340.6575    1.0088118   0.25945747    314.42239    6.1642235 
  508000    286.45811   -3555346.9    9249.6543    1.0088118   0.25950398    317.04872     6.137501 
  510000    281.21446     -3555328    4183.5248    1.0088118   0.25954757    312.77617    6.1633804 
  512000    313.64196   -3555336.4    6190.9785    1.0088118   0.25955419    313.42911    6.1355222 
  514000    265.46135   -3555366.7    3604.3489    1.0088118   0.25955827    317.62663    6.1112314 
  516000    287.60081   -3555329.6    5005.1717    1.0088118   0.25955833    315.01288    6.1417458 
  518000     303.6944   -3555323.9    7821.3055    1.0088118   0.25955295    318.27874    6.1148791 
  520000    280.84788   -3555328.2    5120.5256    1.0088118    0.2595506    316.17784    6.0993123 
  522000    266.92537   -3555362.5   -2388.4396    1.0088118   0.25953479    321.00722    6.0667147 
  524000    284.97688   -3555301.1    7807.8951    1.0088118   0.25952547    320.39734    6.0437058 
  526000    287.36752     -3555343    10607.321    1.0088118   0.25950578    320.10476    6.0329347 
  528000    299.76391   -3555319.9   -412.60971    1.0088118   0.25945866    318.31428    6.0414441 
  530000    307.68707   -3555298.9     3156.832    1.0088118   0.25938993    316.73201    6.0227903 
  532000    304.11431   -3555325.9    2898.8772    1.0088118   0.25933057    322.69514    6.0694176 
  534000    319.23062   -3555284.9    4100.6533    1.0088118   0.25927207     320.3945    6.0568233 
  536000    296.28391   -3555315.1   -1305.5671    1.0088118   0.25918023    317.57951    6.1010185 
  538000    305.96636   -3555307.4     4295.345    1.0088118   0.25906776    316.20159    6.0991024 
  540000    260.47367   -3555336.4    4385.1553    1.0088118   0.25895458    318.15163    6.0893778 
  542000    305.19588   -3555296.1    2968.6406    1.0088118   0.25883831    320.60895    6.0706605 
  544000    302.96686   -3555301.3   -190.57265    1.0088118    0.2587397    324.07947    6.0542094 
  546000    299.65459   -3555314.3    3009.3039    1.0088118   0.25866111    330.66384    6.0367628 
  548000    312.38262   -3555315.9    6984.1912    1.0088118   0.25859892    330.04152    6.0362075 
  550000     310.8286   -3555355.5    5560.3471    1.0088118   0.25852591    329.41859    6.0282907 
  552000    286.10669   -3555336.5    2776.1531    1.0088118   0.25843772    330.85246    6.0161025 
  554000     280.0738   -3555333.3    9058.9803    1.0088118   0.25837603    338.80299    6.0069789 
  556000    287.36046     -3555343    1558.6675    1.0088118   0.25834875     338.8661    6.0121811 
  558000    290.89612   -3555316.6    6078.8355    1.0088118   0.25829235    335.95205    6.0022695 
  560000    299.64869   -3555335.3    7343.9795    1.0088118   0.25821801    338.87034    5.9883167 
  562000    280.14919   -3555346.9   -1261.0228    1.0088118   0.25816854    344.04454    6.0082683 
  564000    285.80776   -3555316.1    7514.3889    1.0088118   0.25813391    344.53103    6.0106553 
  566000    326.15953   -3555283.4    5254.8851    1.0088118   0.25808936    344.03264    5.9907397 
  568000     308.2482   -3555305.5    6135.8546    1.0088118   0.25802393    344.25013     5.969099 
  570000    274.78979   -3555333.1    4390.7936    1.0088118   0.25794743    342.79988    5.9452304 
  572000    303.73963   -3555297.1   -289.83388    1.0088118   0.25784682    340.49853    5.9285844 
  574000    293.29849   -3555316.6    5557.2624    1.0088118   0.25774076    340.13203    5.9180256 
  576000    295.40861   -3555321.3    6620.8016    1.0088118   0.25763386    343.43775    5.9050807 
  578000     314.8705     -3555314    7475.0809    1.0088118   0.25751248    339.93596    5.8944185 
  580000    272.00557   -3555324.2    5224.1825    1.0088118   0.25740115    348.10078    5.8630898 
  582000    294.76974   -3555314.6    3460.1047    1.0088118     0.257296    345.29163    5.8544024 
  584000    287.86209   -3555326.3    7534.2139    1.0088118   0.25717393    347.90065     5.856853 
  586000    284.80312   -3555341.4    4428.3506    1.0088118   0.25706426     348.9659    5.8742885 
  588000    293.64366   -3555332.8   -153.28451    1.0088118   0.25695811    351.03503    5.8986222 
  590000    302.19697   -3555318.2    4335.5608    1.0088118   0.25686439     356.0302     5.864173 
  592000    290.47999     -3555318    420.31151    1.0088118   0.25678799    359.32202    5.8437527 
  594000    278.96756   -3555315.4    2720.5383    1.0088118   0.25671749    361.69285    5.8661924 
  596000    322.00754   -3555294.5    5371.8081    1.0088118   0.25665221    362.30355    5.9082155 
  598000    329.94821   -3555253.4    5526.2618    1.0088118   0.25659412    367.29912    5.9308585 
  600000    276.90272   -3555324.1   -2605.4902    1.0088118   0.25653831    366.42704    5.9315424 
  602000    294.11468   -3555303.9   -909.24007    1.0088118   0.25648599    368.64105    5.9088892 
  604000    309.93731   -3555314.6   -1023.1152    1.0088118   0.25643392    375.86108    5.9063895 
  606000    300.39026   -3555297.4   -343.42089    1.0088118    0.2564078    379.10659     5.889292 
  608000     286.7188   -3555307.5    4278.5789    1.0088118    0.2563863    378.98881    5.8719933 
  610000     277.7611   -3555335.9    894.88787    1.0088118    0.2563338    373.34257    5.8667371 
Loop time of 5126.15 on 20 procs for 500000 steps with 222 atoms

Performance: 4.214 ns/day, 5.696 hours/ns, 97.539 timesteps/s
96.0% CPU use with 20 MPI tasks x no OpenMP threads

MPI task timing breakdown:
Section |  min time  |  avg time  |  max time  |%varavg| %total
---------------------------------------------------------------
Pair    | 3532       | 3618.6     | 3736.4     |  95.3 | 70.59
Bond    | 0.056905   | 0.065293   | 0.07351    |   2.0 |  0.00
Neigh   | 0.72491    | 0.74839    | 0.7702     |   1.4 |  0.01
Comm    | 1374.9     | 1492.8     | 1579.5     | 148.3 | 29.12
Output  | 0.18133    | 0.18729    | 0.21747    |   1.7 |  0.00
Modify  | 8.9391     | 9.4768     | 10.165     |  10.1 |  0.18
Other   |            | 4.321      |            |       |  0.08

Nlocal:    11.1 ave 15 max 8 min
Histogram: 1 3 6 0 3 2 0 2 1 2
Nghost:    1039.15 ave 1062 max 1015 min
Histogram: 2 0 1 1 7 1 3 2 2 1
Neighs:    0 ave 0 max 0 min
Histogram: 20 0 0 0 0 0 0 0 0 0
FullNghs:  2735.3 ave 3743 max 1938 min
Histogram: 1 3 4 2 3 2 0 2 1 2

Total # of neighbors = 54706
Ave neighs/atom = 246.423
Ave special neighs/atom = 0
Neighbor list builds = 7754
Dangerous builds = 0
